<?xml version="1.0" encoding="UTF-8"?>

<!-- generated on 10/29/20 20:58:22 by Eclipse SUMO GUI Version 1.7.0
<configuration xmlns:xsi="http://www.w3.org/2001/XMLSchema-instance" xsi:noNamespaceSchemaLocation="http://sumo.dlr.de/xsd/sumoConfiguration.xsd">

    <input>
        <net-file value="network.net.xml"/>
        <route-files value="routes.xml"/>
        <additional-files value="lanedetector.xml"/>
    </input>

    <output>
        <tripinfo-output value="tripinfo.xml"/>
    </output>

    <emissions>
        <device.emissions.probability value="1"/>
    </emissions>

    <traci_server>
        <remote-port value="50631"/>
    </traci_server>

</configuration>
-->

<detector xmlns:xsi="http://www.w3.org/2001/XMLSchema-instance" xsi:noNamespaceSchemaLocation="http://sumo.dlr.de/xsd/det_e2_file.xsd">
   <interval begin="0.00" end="156.00" id="lad_n1" sampledSeconds="349.07" nVehEntered="16" nVehLeft="16" nVehSeen="16" meanSpeed="1.60" meanTimeLoss="19.10" meanOccupancy="32.25" maxOccupancy="66.65" meanMaxJamLengthInVehicles="2.00" meanMaxJamLengthInMeters="13.29" maxJamLengthInVehicles="5" maxJamLengthInMeters="30.00" jamLengthInVehiclesSum="314" jamLengthInMetersSum="2074.43" meanHaltingDuration="6.29" maxHaltingDuration="15.00" haltingDurationSum="44.00" meanIntervalHaltingDuration="6.29" maxIntervalHaltingDuration="15.00" intervalHaltingDurationSum="44.00" startedHalts="19.00" meanVehicleNumber="2.37" maxVehicleNumber="5" />
   <interval begin="0.00" end="156.00" id="lad_n2" sampledSeconds="236.94" nVehEntered="7" nVehLeft="7" nVehSeen="7" meanSpeed="1.03" meanTimeLoss="31.01" meanOccupancy="24.20" maxOccupancy="50.00" meanMaxJamLengthInVehicles="1.38" meanMaxJamLengthInMeters="8.47" maxJamLengthInVehicles="3" maxJamLengthInMeters="20.20" jamLengthInVehiclesSum="215" jamLengthInMetersSum="1321.79" meanHaltingDuration="0.00" maxHaltingDuration="0.00" haltingDurationSum="0.00" meanIntervalHaltingDuration="0.00" maxIntervalHaltingDuration="0.00" intervalHaltingDurationSum="0.00" startedHalts="7.00" meanVehicleNumber="1.56" maxVehicleNumber="3" />
   <interval begin="0.00" end="156.00" id="lad_n3" sampledSeconds="155.81" nVehEntered="11" nVehLeft="11" nVehSeen="11" meanSpeed="2.47" meanTimeLoss="11.33" meanOccupancy="14.86" maxOccupancy="50.53" meanMaxJamLengthInVehicles="0.80" meanMaxJamLengthInMeters="5.06" maxJamLengthInVehicles="3" maxJamLengthInMeters="25.56" jamLengthInVehiclesSum="125" jamLengthInMetersSum="788.94" meanHaltingDuration="6.00" maxHaltingDuration="6.00" haltingDurationSum="6.00" meanIntervalHaltingDuration="6.00" maxIntervalHaltingDuration="6.00" intervalHaltingDurationSum="6.00" startedHalts="11.00" meanVehicleNumber="1.06" maxVehicleNumber="4" />
   <interval begin="0.00" end="156.00" id="lad_n4" sampledSeconds="298.32" nVehEntered="7" nVehLeft="7" nVehSeen="7" meanSpeed="0.82" meanTimeLoss="39.84" meanOccupancy="30.74" maxOccupancy="66.67" meanMaxJamLengthInVehicles="1.79" meanMaxJamLengthInMeters="11.68" maxJamLengthInVehicles="4" maxJamLengthInMeters="27.70" jamLengthInVehiclesSum="279" jamLengthInMetersSum="1821.90" meanHaltingDuration="1.00" maxHaltingDuration="1.00" haltingDurationSum="1.00" meanIntervalHaltingDuration="1.00" maxIntervalHaltingDuration="1.00" intervalHaltingDurationSum="1.00" startedHalts="7.00" meanVehicleNumber="1.96" maxVehicleNumber="4" />
</detector>
