<?xml version="1.0" encoding="UTF-8"?>

<!-- generated on 10/29/20 20:58:22 by Eclipse SUMO GUI Version 1.7.0
<configuration xmlns:xsi="http://www.w3.org/2001/XMLSchema-instance" xsi:noNamespaceSchemaLocation="http://sumo.dlr.de/xsd/sumoConfiguration.xsd">

    <input>
        <net-file value="network.net.xml"/>
        <route-files value="routes.xml"/>
        <additional-files value="lanedetector.xml"/>
    </input>

    <output>
        <tripinfo-output value="tripinfo.xml"/>
    </output>

    <emissions>
        <device.emissions.probability value="1"/>
    </emissions>

    <traci_server>
        <remote-port value="50631"/>
    </traci_server>

</configuration>
-->

<tripinfos xmlns:xsi="http://www.w3.org/2001/XMLSchema-instance" xsi:noNamespaceSchemaLocation="http://sumo.dlr.de/xsd/tripinfo_file.xsd">
    <tripinfo id="0" depart="0.00" departLane="n4o_0" departPos="5.10" departSpeed="0.00" departDelay="0.00" arrival="29.00" arrivalLane="n3i_0" arrivalPos="92.80" arrivalSpeed="12.41" duration="29.00" routeLength="189.53" waitingTime="0.00" waitingCount="0" stopTime="0.00" timeLoss="15.46" rerouteNo="0" devices="tripinfo_0 emissions_0" vType="vehicle1" speedFactor="1.06" vaporized="">
        <emissions CO_abs="2259.734810" CO2_abs="89419.201588" HC_abs="12.341167" PMx_abs="1.488735" NOx_abs="36.415911" fuel_abs="38.438340" electricity_abs="0"/>
    </tripinfo>
    <tripinfo id="1" depart="1.00" departLane="n2o_0" departPos="5.10" departSpeed="0.00" departDelay="0.00" arrival="32.00" arrivalLane="n3i_0" arrivalPos="92.80" arrivalSpeed="12.59" duration="31.00" routeLength="194.69" waitingTime="0.00" waitingCount="0" stopTime="0.00" timeLoss="14.84" rerouteNo="0" devices="tripinfo_1 emissions_1" vType="vehicle1" speedFactor="0.94" vaporized="">
        <emissions CO_abs="2359.485709" CO2_abs="92228.324828" HC_abs="12.859754" PMx_abs="1.538956" NOx_abs="37.573086" fuel_abs="39.645908" electricity_abs="0"/>
    </tripinfo>
    <tripinfo id="6" depart="6.00" departLane="n1o_0" departPos="5.10" departSpeed="0.00" departDelay="0.00" arrival="36.00" arrivalLane="n4i_0" arrivalPos="92.80" arrivalSpeed="11.24" duration="30.00" routeLength="189.53" waitingTime="0.00" waitingCount="0" stopTime="0.00" timeLoss="11.77" rerouteNo="0" devices="tripinfo_6 emissions_6" vType="vehicle1" speedFactor="0.83" vaporized="">
        <emissions CO_abs="2191.887547" CO2_abs="85314.120065" HC_abs="11.936566" PMx_abs="1.421066" NOx_abs="34.782331" fuel_abs="36.673728" electricity_abs="0"/>
    </tripinfo>
    <tripinfo id="3" depart="7.00" departLane="n2o_0" departPos="5.10" departSpeed="0.00" departDelay="4.00" arrival="39.00" arrivalLane="n1i_0" arrivalPos="92.80" arrivalSpeed="11.67" duration="32.00" routeLength="189.53" waitingTime="0.00" waitingCount="0" stopTime="0.00" timeLoss="17.28" rerouteNo="0" devices="tripinfo_3 emissions_3" vType="vehicle1" speedFactor="1.01" vaporized="">
        <emissions CO_abs="2576.983182" CO2_abs="95183.935858" HC_abs="13.911830" PMx_abs="1.586734" NOx_abs="38.864285" fuel_abs="40.916542" electricity_abs="0"/>
    </tripinfo>
    <tripinfo id="7" depart="11.00" departLane="n1o_0" departPos="5.10" departSpeed="0.00" departDelay="4.00" arrival="40.00" arrivalLane="n4i_0" arrivalPos="92.80" arrivalSpeed="12.58" duration="29.00" routeLength="189.53" waitingTime="0.00" waitingCount="0" stopTime="0.00" timeLoss="14.85" rerouteNo="0" devices="tripinfo_7 emissions_7" vType="vehicle1" speedFactor="1.05" vaporized="">
        <emissions CO_abs="2113.858537" CO2_abs="84838.548012" HC_abs="11.569696" PMx_abs="1.391903" NOx_abs="34.357050" fuel_abs="36.469281" electricity_abs="0"/>
    </tripinfo>
    <tripinfo id="4" depart="12.00" departLane="n2o_0" departPos="5.10" departSpeed="0.00" departDelay="8.00" arrival="50.00" arrivalLane="n1i_0" arrivalPos="92.80" arrivalSpeed="10.87" duration="38.00" routeLength="189.53" waitingTime="2.00" waitingCount="1" stopTime="0.00" timeLoss="24.74" rerouteNo="0" devices="tripinfo_4 emissions_4" vType="vehicle1" speedFactor="1.08" vaporized="">
        <emissions CO_abs="3223.773149" CO2_abs="105491.850854" HC_abs="17.096910" PMx_abs="1.840293" NOx_abs="43.628322" fuel_abs="45.347773" electricity_abs="0"/>
    </tripinfo>
    <tripinfo id="5" depart="5.00" departLane="n3o_0" departPos="5.10" departSpeed="0.00" departDelay="0.00" arrival="50.00" arrivalLane="n4i_0" arrivalPos="92.80" arrivalSpeed="11.13" duration="45.00" routeLength="194.69" waitingTime="7.00" waitingCount="1" stopTime="0.00" timeLoss="30.37" rerouteNo="0" devices="tripinfo_5 emissions_5" vType="vehicle1" speedFactor="1.03" vaporized="">
        <emissions CO_abs="3698.534406" CO2_abs="112387.909344" HC_abs="19.418903" PMx_abs="2.012106" NOx_abs="46.794903" fuel_abs="48.312330" electricity_abs="0"/>
    </tripinfo>
    <tripinfo id="8" depart="10.00" departLane="n3o_0" departPos="5.10" departSpeed="0.00" departDelay="2.00" arrival="53.00" arrivalLane="n2i_0" arrivalPos="92.80" arrivalSpeed="10.87" duration="43.00" routeLength="189.53" waitingTime="6.00" waitingCount="1" stopTime="0.00" timeLoss="26.69" rerouteNo="0" devices="tripinfo_8 emissions_8" vType="vehicle1" speedFactor="0.89" vaporized="">
        <emissions CO_abs="3586.189459" CO2_abs="108017.523009" HC_abs="18.804286" PMx_abs="1.926270" NOx_abs="44.952080" fuel_abs="46.433662" electricity_abs="0"/>
    </tripinfo>
    <tripinfo id="10" depart="10.00" departLane="n4o_0" departPos="5.10" departSpeed="0.00" departDelay="0.00" arrival="56.00" arrivalLane="n1i_0" arrivalPos="92.80" arrivalSpeed="11.14" duration="46.00" routeLength="194.69" waitingTime="4.00" waitingCount="2" stopTime="0.00" timeLoss="29.54" rerouteNo="0" devices="tripinfo_10 emissions_10" vType="vehicle1" speedFactor="0.94" vaporized="">
        <emissions CO_abs="3870.047525" CO2_abs="118352.434490" HC_abs="20.335795" PMx_abs="2.110212" NOx_abs="49.220534" fuel_abs="50.876300" electricity_abs="0"/>
    </tripinfo>
    <tripinfo id="13" depart="16.00" departLane="n1o_0" departPos="5.10" departSpeed="0.00" departDelay="3.00" arrival="60.00" arrivalLane="n3i_0" arrivalPos="92.80" arrivalSpeed="11.66" duration="44.00" routeLength="194.90" waitingTime="3.00" waitingCount="1" stopTime="0.00" timeLoss="30.80" rerouteNo="0" devices="tripinfo_13 emissions_13" vType="vehicle1" speedFactor="1.09" vaporized="">
        <emissions CO_abs="3976.860437" CO2_abs="119244.062736" HC_abs="20.847804" PMx_abs="2.161860" NOx_abs="49.777851" fuel_abs="51.259602" electricity_abs="0"/>
    </tripinfo>
    <tripinfo id="15" depart="15.00" departLane="n3o_0" departPos="5.10" departSpeed="0.00" departDelay="0.00" arrival="60.00" arrivalLane="n1i_0" arrivalPos="92.80" arrivalSpeed="11.94" duration="45.00" routeLength="194.90" waitingTime="3.00" waitingCount="1" stopTime="0.00" timeLoss="30.77" rerouteNo="0" devices="tripinfo_15 emissions_15" vType="vehicle1" speedFactor="1.03" vaporized="">
        <emissions CO_abs="3822.482192" CO2_abs="117055.723413" HC_abs="20.093760" PMx_abs="2.107108" NOx_abs="48.793142" fuel_abs="50.318848" electricity_abs="0"/>
    </tripinfo>
    <tripinfo id="17" depart="20.00" departLane="n3o_0" departPos="5.10" departSpeed="0.00" departDelay="3.00" arrival="63.00" arrivalLane="n1i_0" arrivalPos="92.80" arrivalSpeed="11.80" duration="43.00" routeLength="194.90" waitingTime="0.00" waitingCount="0" stopTime="0.00" timeLoss="30.01" rerouteNo="0" devices="tripinfo_17 emissions_17" vType="vehicle1" speedFactor="1.12" vaporized="">
        <emissions CO_abs="3883.666179" CO2_abs="117648.517835" HC_abs="20.381103" PMx_abs="2.100305" NOx_abs="48.941903" fuel_abs="50.573734" electricity_abs="0"/>
    </tripinfo>
    <tripinfo id="12" depart="18.00" departLane="n2o_0" departPos="5.10" departSpeed="0.00" departDelay="6.00" arrival="68.00" arrivalLane="n3i_0" arrivalPos="92.80" arrivalSpeed="10.80" duration="50.00" routeLength="194.69" waitingTime="11.00" waitingCount="1" stopTime="0.00" timeLoss="32.86" rerouteNo="0" devices="tripinfo_12 emissions_12" vType="vehicle1" speedFactor="0.86" vaporized="">
        <emissions CO_abs="4349.129836" CO2_abs="122796.663304" HC_abs="22.625337" PMx_abs="2.271390" NOx_abs="51.562011" fuel_abs="52.786910" electricity_abs="0"/>
    </tripinfo>
    <tripinfo id="21" depart="26.00" departLane="n3o_0" departPos="5.10" departSpeed="0.00" departDelay="5.00" arrival="68.00" arrivalLane="n2i_0" arrivalPos="92.80" arrivalSpeed="10.93" duration="42.00" routeLength="189.53" waitingTime="0.00" waitingCount="0" stopTime="0.00" timeLoss="25.63" rerouteNo="0" devices="tripinfo_21 emissions_21" vType="vehicle1" speedFactor="0.88" vaporized="">
        <emissions CO_abs="3764.615810" CO2_abs="112123.331470" HC_abs="19.706152" PMx_abs="1.986706" NOx_abs="46.637931" fuel_abs="48.198682" electricity_abs="0"/>
    </tripinfo>
    <tripinfo id="28" depart="31.00" departLane="n3o_0" departPos="5.10" departSpeed="0.00" departDelay="3.00" arrival="71.00" arrivalLane="n2i_0" arrivalPos="92.80" arrivalSpeed="11.19" duration="40.00" routeLength="189.53" waitingTime="0.00" waitingCount="0" stopTime="0.00" timeLoss="23.30" rerouteNo="0" devices="tripinfo_28 emissions_28" vType="vehicle1" speedFactor="0.89" vaporized="">
        <emissions CO_abs="3400.528847" CO2_abs="107134.187635" HC_abs="17.931168" PMx_abs="1.850932" NOx_abs="44.249977" fuel_abs="46.053894" electricity_abs="0"/>
    </tripinfo>
    <tripinfo id="33" depart="36.00" departLane="n3o_0" departPos="5.10" departSpeed="0.00" departDelay="3.00" arrival="72.00" arrivalLane="n2i_0" arrivalPos="92.80" arrivalSpeed="11.06" duration="36.00" routeLength="189.53" waitingTime="0.00" waitingCount="0" stopTime="0.00" timeLoss="20.84" rerouteNo="0" devices="tripinfo_33 emissions_33" vType="vehicle1" speedFactor="0.95" vaporized="">
        <emissions CO_abs="2842.690377" CO2_abs="94297.592738" HC_abs="15.099072" PMx_abs="1.609926" NOx_abs="38.803339" fuel_abs="40.535715" electricity_abs="0"/>
    </tripinfo>
    <tripinfo id="36" depart="41.00" departLane="n3o_0" departPos="5.10" departSpeed="0.00" departDelay="5.00" arrival="74.00" arrivalLane="n2i_0" arrivalPos="92.80" arrivalSpeed="11.73" duration="33.00" routeLength="189.53" waitingTime="0.00" waitingCount="0" stopTime="0.00" timeLoss="20.71" rerouteNo="0" devices="tripinfo_36 emissions_36" vType="vehicle1" speedFactor="1.18" vaporized="">
        <emissions CO_abs="2647.936873" CO2_abs="93415.576740" HC_abs="14.193500" PMx_abs="1.572066" NOx_abs="38.250128" fuel_abs="40.156458" electricity_abs="0"/>
    </tripinfo>
    <tripinfo id="16" depart="21.00" departLane="n1o_0" departPos="5.10" departSpeed="0.00" departDelay="5.00" arrival="85.00" arrivalLane="n2i_0" arrivalPos="92.80" arrivalSpeed="11.60" duration="64.00" routeLength="194.69" waitingTime="18.00" waitingCount="2" stopTime="0.00" timeLoss="49.33" rerouteNo="0" devices="tripinfo_16 emissions_16" vType="vehicle1" speedFactor="1.05" vaporized="">
        <emissions CO_abs="6021.463399" CO2_abs="153128.164630" HC_abs="30.949401" PMx_abs="2.983347" NOx_abs="65.185300" fuel_abs="65.825879" electricity_abs="0"/>
    </tripinfo>
    <tripinfo id="25" depart="25.00" departLane="n4o_0" departPos="5.10" departSpeed="0.00" departDelay="0.00" arrival="90.00" arrivalLane="n1i_0" arrivalPos="92.80" arrivalSpeed="10.58" duration="65.00" routeLength="194.69" waitingTime="24.00" waitingCount="2" stopTime="0.00" timeLoss="50.57" rerouteNo="0" devices="tripinfo_25 emissions_25" vType="vehicle1" speedFactor="1.02" vaporized="">
        <emissions CO_abs="5991.738031" CO2_abs="149310.824719" HC_abs="30.727049" PMx_abs="2.933944" NOx_abs="63.729269" fuel_abs="64.184966" electricity_abs="0"/>
    </tripinfo>
    <tripinfo id="19" depart="27.00" departLane="n1o_0" departPos="5.10" departSpeed="0.00" departDelay="8.00" arrival="94.00" arrivalLane="n3i_0" arrivalPos="92.80" arrivalSpeed="11.43" duration="67.00" routeLength="194.90" waitingTime="21.00" waitingCount="1" stopTime="0.00" timeLoss="52.46" rerouteNo="0" devices="tripinfo_19 emissions_19" vType="vehicle1" speedFactor="0.99" vaporized="">
        <emissions CO_abs="6582.205218" CO2_abs="160156.006827" HC_abs="33.668473" PMx_abs="3.183593" NOx_abs="68.574480" fuel_abs="68.847116" electricity_abs="0"/>
    </tripinfo>
    <tripinfo id="38" depart="46.00" departLane="n3o_0" departPos="5.10" departSpeed="0.00" departDelay="8.00" arrival="94.00" arrivalLane="n1i_0" arrivalPos="92.80" arrivalSpeed="11.61" duration="48.00" routeLength="194.90" waitingTime="11.00" waitingCount="1" stopTime="0.00" timeLoss="33.59" rerouteNo="0" devices="tripinfo_38 emissions_38" vType="vehicle1" speedFactor="1.01" vaporized="">
        <emissions CO_abs="3847.736327" CO2_abs="113355.239748" HC_abs="20.127447" PMx_abs="2.078879" NOx_abs="47.449985" fuel_abs="48.728189" electricity_abs="0"/>
    </tripinfo>
    <tripinfo id="20" depart="32.00" departLane="n1o_0" departPos="5.10" departSpeed="0.00" departDelay="12.00" arrival="96.00" arrivalLane="n3i_0" arrivalPos="92.80" arrivalSpeed="11.91" duration="64.00" routeLength="194.90" waitingTime="21.00" waitingCount="1" stopTime="0.00" timeLoss="48.20" rerouteNo="0" devices="tripinfo_20 emissions_20" vType="vehicle1" speedFactor="0.93" vaporized="">
        <emissions CO_abs="5960.418338" CO2_abs="150085.920878" HC_abs="30.603869" PMx_abs="2.942559" NOx_abs="63.956192" fuel_abs="64.518124" electricity_abs="0"/>
    </tripinfo>
    <tripinfo id="45" depart="51.00" departLane="n3o_0" departPos="5.10" departSpeed="0.00" departDelay="6.00" arrival="97.00" arrivalLane="n1i_0" arrivalPos="92.80" arrivalSpeed="11.69" duration="46.00" routeLength="194.90" waitingTime="8.00" waitingCount="1" stopTime="0.00" timeLoss="32.58" rerouteNo="0" devices="tripinfo_45 emissions_45" vType="vehicle1" speedFactor="1.10" vaporized="">
        <emissions CO_abs="3881.796774" CO2_abs="118835.998311" HC_abs="20.402906" PMx_abs="2.126072" NOx_abs="49.402031" fuel_abs="51.084163" electricity_abs="0"/>
    </tripinfo>
    <tripinfo id="26" depart="30.00" departLane="n4o_0" departPos="5.10" departSpeed="0.00" departDelay="4.00" arrival="102.00" arrivalLane="n2i_0" arrivalPos="92.80" arrivalSpeed="11.10" duration="72.00" routeLength="194.90" waitingTime="30.00" waitingCount="2" stopTime="0.00" timeLoss="57.78" rerouteNo="0" devices="tripinfo_26 emissions_26" vType="vehicle1" speedFactor="1.01" vaporized="">
        <emissions CO_abs="7553.889479" CO2_abs="174597.830980" HC_abs="38.431003" PMx_abs="3.548987" NOx_abs="75.190839" fuel_abs="75.055512" electricity_abs="0"/>
    </tripinfo>
    <tripinfo id="22" depart="23.00" departLane="n2o_0" departPos="5.10" departSpeed="0.00" departDelay="1.00" arrival="104.00" arrivalLane="n4i_0" arrivalPos="92.80" arrivalSpeed="11.59" duration="81.00" routeLength="194.90" waitingTime="36.00" waitingCount="2" stopTime="0.00" timeLoss="65.41" rerouteNo="0" devices="tripinfo_22 emissions_22" vType="vehicle1" speedFactor="0.94" vaporized="">
        <emissions CO_abs="8310.550396" CO2_abs="189093.776867" HC_abs="42.215391" PMx_abs="3.884797" NOx_abs="81.699383" fuel_abs="81.287027" electricity_abs="0"/>
    </tripinfo>
    <tripinfo id="46" depart="56.00" departLane="n3o_0" departPos="5.10" departSpeed="0.00" departDelay="10.00" arrival="106.00" arrivalLane="n4i_0" arrivalPos="92.80" arrivalSpeed="11.69" duration="50.00" routeLength="194.69" waitingTime="7.00" waitingCount="2" stopTime="0.00" timeLoss="33.39" rerouteNo="0" devices="tripinfo_46 emissions_46" vType="vehicle1" speedFactor="0.90" vaporized="">
        <emissions CO_abs="3847.502009" CO2_abs="116235.853664" HC_abs="20.187443" PMx_abs="2.096499" NOx_abs="48.520087" fuel_abs="49.966444" electricity_abs="0"/>
    </tripinfo>
    <tripinfo id="23" depart="37.00" departLane="n1o_0" departPos="5.10" departSpeed="0.00" departDelay="14.00" arrival="108.00" arrivalLane="n2i_0" arrivalPos="92.80" arrivalSpeed="11.20" duration="71.00" routeLength="194.69" waitingTime="23.00" waitingCount="2" stopTime="0.00" timeLoss="54.75" rerouteNo="0" devices="tripinfo_23 emissions_23" vType="vehicle1" speedFactor="0.94" vaporized="">
        <emissions CO_abs="6586.971169" CO2_abs="159078.232061" HC_abs="33.663987" PMx_abs="3.163303" NOx_abs="68.122334" fuel_abs="68.383848" electricity_abs="0"/>
    </tripinfo>
    <tripinfo id="27" depart="42.00" departLane="n1o_0" departPos="5.10" departSpeed="0.00" departDelay="15.00" arrival="111.00" arrivalLane="n2i_0" arrivalPos="92.80" arrivalSpeed="11.51" duration="69.00" routeLength="194.69" waitingTime="19.00" waitingCount="2" stopTime="0.00" timeLoss="52.99" rerouteNo="0" devices="tripinfo_27 emissions_27" vType="vehicle1" speedFactor="0.98" vaporized="">
        <emissions CO_abs="6616.418060" CO2_abs="161852.853351" HC_abs="33.859445" PMx_abs="3.191337" NOx_abs="69.136558" fuel_abs="69.576558" electricity_abs="0"/>
    </tripinfo>
    <tripinfo id="31" depart="48.00" departLane="n1o_0" departPos="5.10" departSpeed="0.00" departDelay="17.00" arrival="112.00" arrivalLane="n3i_0" arrivalPos="92.80" arrivalSpeed="11.82" duration="64.00" routeLength="194.90" waitingTime="16.00" waitingCount="1" stopTime="0.00" timeLoss="47.92" rerouteNo="0" devices="tripinfo_31 emissions_31" vType="vehicle1" speedFactor="0.87" vaporized="">
        <emissions CO_abs="6103.462820" CO2_abs="150661.881242" HC_abs="31.264568" PMx_abs="2.957822" NOx_abs="64.295686" fuel_abs="64.765804" electricity_abs="0"/>
    </tripinfo>
    <tripinfo id="32" depart="53.00" departLane="n1o_0" departPos="5.10" departSpeed="0.00" departDelay="21.00" arrival="115.00" arrivalLane="n3i_0" arrivalPos="92.80" arrivalSpeed="11.83" duration="62.00" routeLength="194.90" waitingTime="14.00" waitingCount="2" stopTime="0.00" timeLoss="46.20" rerouteNo="0" devices="tripinfo_32 emissions_32" vType="vehicle1" speedFactor="0.92" vaporized="">
        <emissions CO_abs="5338.675621" CO2_abs="138948.416298" HC_abs="27.503135" PMx_abs="2.637925" NOx_abs="58.750944" fuel_abs="59.730362" electricity_abs="0"/>
    </tripinfo>
    <tripinfo id="35" depart="58.00" departLane="n1o_0" departPos="5.10" departSpeed="0.00" departDelay="23.00" arrival="119.00" arrivalLane="n2i_0" arrivalPos="92.80" arrivalSpeed="12.24" duration="61.00" routeLength="194.69" waitingTime="10.00" waitingCount="1" stopTime="0.00" timeLoss="44.38" rerouteNo="0" devices="tripinfo_35 emissions_35" vType="vehicle1" speedFactor="0.93" vaporized="">
        <emissions CO_abs="5472.790644" CO2_abs="144118.078883" HC_abs="28.236298" PMx_abs="2.745175" NOx_abs="61.000652" fuel_abs="61.952597" electricity_abs="0"/>
    </tripinfo>
    <tripinfo id="37" depart="63.00" departLane="n1o_0" departPos="5.10" departSpeed="0.00" departDelay="26.00" arrival="120.00" arrivalLane="n3i_0" arrivalPos="92.80" arrivalSpeed="12.30" duration="57.00" routeLength="194.90" waitingTime="8.00" waitingCount="1" stopTime="0.00" timeLoss="44.55" rerouteNo="0" devices="tripinfo_37 emissions_37" vType="vehicle1" speedFactor="1.15" vaporized="">
        <emissions CO_abs="4802.790563" CO2_abs="129639.413018" HC_abs="24.849860" PMx_abs="2.436659" NOx_abs="54.649070" fuel_abs="55.728546" electricity_abs="0"/>
    </tripinfo>
    <tripinfo id="24" depart="29.00" departLane="n2o_0" departPos="5.10" departSpeed="0.00" departDelay="5.00" arrival="127.00" arrivalLane="n1i_0" arrivalPos="92.80" arrivalSpeed="11.64" duration="98.00" routeLength="189.53" waitingTime="48.00" waitingCount="4" stopTime="0.00" timeLoss="85.07" rerouteNo="0" devices="tripinfo_24 emissions_24" vType="vehicle1" speedFactor="1.16" vaporized="">
        <emissions CO_abs="10020.201202" CO2_abs="216405.588010" HC_abs="50.644310" PMx_abs="4.584610" NOx_abs="94.317504" fuel_abs="93.027973" electricity_abs="0"/>
    </tripinfo>
    <tripinfo id="29" depart="35.00" departLane="n4o_0" departPos="5.10" departSpeed="0.00" departDelay="6.00" arrival="132.00" arrivalLane="n1i_0" arrivalPos="92.80" arrivalSpeed="10.90" duration="97.00" routeLength="194.69" waitingTime="44.00" waitingCount="4" stopTime="0.00" timeLoss="78.91" rerouteNo="0" devices="tripinfo_29 emissions_29" vType="vehicle1" speedFactor="0.83" vaporized="">
        <emissions CO_abs="10479.650476" CO2_abs="223011.696184" HC_abs="52.888072" PMx_abs="4.744223" NOx_abs="97.363207" fuel_abs="95.867890" electricity_abs="0"/>
    </tripinfo>
    <tripinfo id="39" depart="68.00" departLane="n1o_0" departPos="5.10" departSpeed="0.00" departDelay="29.00" arrival="136.00" arrivalLane="n3i_0" arrivalPos="92.80" arrivalSpeed="11.12" duration="68.00" routeLength="194.90" waitingTime="11.00" waitingCount="2" stopTime="0.00" timeLoss="56.01" rerouteNo="0" devices="tripinfo_39 emissions_39" vType="vehicle1" speedFactor="1.17" vaporized="">
        <emissions CO_abs="6039.237110" CO2_abs="148298.974845" HC_abs="30.909730" PMx_abs="2.885817" NOx_abs="63.255504" fuel_abs="63.750102" electricity_abs="0"/>
    </tripinfo>
    <tripinfo id="42" depart="73.00" departLane="n1o_0" departPos="5.10" departSpeed="0.00" departDelay="31.00" arrival="138.00" arrivalLane="n3i_0" arrivalPos="92.80" arrivalSpeed="11.44" duration="65.00" routeLength="194.90" waitingTime="7.00" waitingCount="2" stopTime="0.00" timeLoss="51.06" rerouteNo="0" devices="tripinfo_42 emissions_42" vType="vehicle1" speedFactor="1.02" vaporized="">
        <emissions CO_abs="5763.421758" CO2_abs="143083.508181" HC_abs="29.534308" PMx_abs="2.773229" NOx_abs="60.917425" fuel_abs="61.508067" electricity_abs="0"/>
    </tripinfo>
    <tripinfo id="44" depart="78.00" departLane="n1o_0" departPos="5.10" departSpeed="0.00" departDelay="34.00" arrival="141.00" arrivalLane="n2i_0" arrivalPos="92.80" arrivalSpeed="11.73" duration="63.00" routeLength="194.69" waitingTime="5.00" waitingCount="2" stopTime="0.00" timeLoss="50.20" rerouteNo="0" devices="tripinfo_44 emissions_44" vType="vehicle1" speedFactor="1.18" vaporized="">
        <emissions CO_abs="5913.512708" CO2_abs="146434.668919" HC_abs="30.297361" PMx_abs="2.850572" NOx_abs="62.383354" fuel_abs="62.948647" electricity_abs="0"/>
    </tripinfo>
    <tripinfo id="43" depart="43.00" departLane="n2o_0" departPos="5.10" departSpeed="0.00" departDelay="0.00" arrival="146.00" arrivalLane="n1i_0" arrivalPos="92.80" arrivalSpeed="11.06" duration="103.00" routeLength="189.53" waitingTime="54.00" waitingCount="4" stopTime="0.00" timeLoss="87.85" rerouteNo="0" devices="tripinfo_43 emissions_43" vType="vehicle1" speedFactor="0.97" vaporized="">
        <emissions CO_abs="10046.474732" CO2_abs="214581.175145" HC_abs="50.719875" PMx_abs="4.555303" NOx_abs="93.595113" fuel_abs="92.243777" electricity_abs="0"/>
    </tripinfo>
    <tripinfo id="48" depart="83.00" departLane="n1o_0" departPos="5.10" departSpeed="0.00" departDelay="35.00" arrival="150.00" arrivalLane="n4i_0" arrivalPos="92.80" arrivalSpeed="11.59" duration="67.00" routeLength="189.53" waitingTime="5.00" waitingCount="2" stopTime="0.00" timeLoss="52.76" rerouteNo="0" devices="tripinfo_48 emissions_48" vType="vehicle1" speedFactor="1.03" vaporized="">
        <emissions CO_abs="5294.769682" CO2_abs="136736.680622" HC_abs="27.252590" PMx_abs="2.612353" NOx_abs="58.034238" fuel_abs="58.779592" electricity_abs="0"/>
    </tripinfo>
    <tripinfo id="34" depart="40.00" departLane="n4o_0" departPos="5.10" departSpeed="0.00" departDelay="6.00" arrival="152.00" arrivalLane="n1i_0" arrivalPos="92.80" arrivalSpeed="11.10" duration="112.00" routeLength="194.69" waitingTime="57.00" waitingCount="4" stopTime="0.00" timeLoss="98.48" rerouteNo="0" devices="tripinfo_34 emissions_34" vType="vehicle1" speedFactor="1.13" vaporized="">
        <emissions CO_abs="10965.843056" CO2_abs="229577.549245" HC_abs="55.254246" PMx_abs="4.912596" NOx_abs="100.414478" fuel_abs="98.690516" electricity_abs="0"/>
    </tripinfo>
    <tripinfo id="40" depart="45.00" departLane="n4o_0" departPos="5.10" departSpeed="0.00" departDelay="5.00" arrival="155.00" arrivalLane="n1i_0" arrivalPos="92.80" arrivalSpeed="11.60" duration="110.00" routeLength="194.69" waitingTime="54.00" waitingCount="5" stopTime="0.00" timeLoss="94.50" rerouteNo="0" devices="tripinfo_40 emissions_40" vType="vehicle1" speedFactor="0.99" vaporized="">
        <emissions CO_abs="9722.395012" CO2_abs="210757.719626" HC_abs="49.148288" PMx_abs="4.416296" NOx_abs="91.590423" fuel_abs="90.600117" electricity_abs="0"/>
    </tripinfo>
</tripinfos>
