<?xml version="1.0" encoding="UTF-8"?>

<!-- generated on 10/17/20 16:45:42 by Eclipse SUMO GUI Version 1.7.0
<configuration xmlns:xsi="http://www.w3.org/2001/XMLSchema-instance" xsi:noNamespaceSchemaLocation="http://sumo.dlr.de/xsd/sumoConfiguration.xsd">

    <input>
        <net-file value="C:\Users\iyyel\Documents\1-1TL1W-Lane\network.net.xml"/>
        <route-files value="C:\Users\iyyel\Documents\1-1TL1W-Lane\testroutes.rou.xml"/>
        <additional-files value="C:\Users\iyyel\Documents\1-1TL1W-Lane\lanedetector.xml"/>
    </input>

    <output>
        <tripinfo-output value="tripinfo.xml"/>
    </output>

    <traci_server>
        <remote-port value="53192"/>
    </traci_server>

</configuration>
-->

<detector xmlns:xsi="http://www.w3.org/2001/XMLSchema-instance" xsi:noNamespaceSchemaLocation="http://sumo.dlr.de/xsd/det_e2_file.xsd">
   <interval begin="0.00" end="66.00" id="gneJ1" sampledSeconds="23.98" nVehEntered="4" nVehLeft="4" nVehSeen="4" meanSpeed="5.67" meanTimeLoss="2.59" meanOccupancy="5.42" maxOccupancy="34.48" meanMaxJamLengthInVehicles="0.08" meanMaxJamLengthInMeters="0.38" maxJamLengthInVehicles="1" maxJamLengthInMeters="5.00" jamLengthInVehiclesSum="5" jamLengthInMetersSum="25.00" meanHaltingDuration="2.25" maxHaltingDuration="3.00" haltingDurationSum="9.00" meanIntervalHaltingDuration="2.25" maxIntervalHaltingDuration="3.00" intervalHaltingDurationSum="9.00" startedHalts="4.00" meanVehicleNumber="0.44" maxVehicleNumber="2" />
</detector>
