<?xml version="1.0" encoding="UTF-8"?>

<!-- generated on 10/17/20 16:45:42 by Eclipse SUMO GUI Version 1.7.0
<configuration xmlns:xsi="http://www.w3.org/2001/XMLSchema-instance" xsi:noNamespaceSchemaLocation="http://sumo.dlr.de/xsd/sumoConfiguration.xsd">

    <input>
        <net-file value="C:\Users\iyyel\Documents\1-1TL1W-Lane\network.net.xml"/>
        <route-files value="C:\Users\iyyel\Documents\1-1TL1W-Lane\testroutes.rou.xml"/>
        <additional-files value="C:\Users\iyyel\Documents\1-1TL1W-Lane\lanedetector.xml"/>
    </input>

    <output>
        <tripinfo-output value="tripinfo.xml"/>
    </output>

    <traci_server>
        <remote-port value="53192"/>
    </traci_server>

</configuration>
-->

<tripinfos xmlns:xsi="http://www.w3.org/2001/XMLSchema-instance" xsi:noNamespaceSchemaLocation="http://sumo.dlr.de/xsd/tripinfo_file.xsd">
    <tripinfo id="carflow_0.0" depart="0.00" departLane="E1_0" departPos="5.10" departSpeed="0.00" departDelay="0.00" arrival="50.00" arrivalLane="E2_0" arrivalPos="200.00" arrivalSpeed="7.61" duration="50.00" routeLength="395.00" waitingTime="0.00" waitingCount="0" stopTime="0.00" timeLoss="10.25" rerouteNo="0" devices="tripinfo_carflow_0.0 routing_carflow_0.0" vType="car_0" speedFactor="1.06" vaporized=""/>
    <tripinfo id="carflow_0.1" depart="2.00" departLane="E1_0" departPos="5.10" departSpeed="0.00" departDelay="2.00" arrival="57.00" arrivalLane="E2_0" arrivalPos="200.00" arrivalSpeed="9.33" duration="55.00" routeLength="395.00" waitingTime="0.00" waitingCount="0" stopTime="0.00" timeLoss="15.28" rerouteNo="0" devices="tripinfo_carflow_0.1 routing_carflow_0.1" vType="car_0" speedFactor="0.94" vaporized=""/>
    <tripinfo id="carflow_1.0" depart="6.00" departLane="E1_0" departPos="5.10" departSpeed="0.00" departDelay="6.00" arrival="62.00" arrivalLane="E2_0" arrivalPos="200.00" arrivalSpeed="7.15" duration="56.00" routeLength="395.00" waitingTime="0.00" waitingCount="0" stopTime="0.00" timeLoss="15.97" rerouteNo="0" devices="tripinfo_carflow_1.0 routing_carflow_1.0" vType="car_1" speedFactor="1.01" vaporized=""/>
    <tripinfo id="carflow_1.1" depart="10.00" departLane="E1_0" departPos="5.10" departSpeed="0.00" departDelay="10.00" arrival="65.00" arrivalLane="E2_0" arrivalPos="200.00" arrivalSpeed="9.78" duration="55.00" routeLength="395.00" waitingTime="0.00" waitingCount="0" stopTime="0.00" timeLoss="15.09" rerouteNo="0" devices="tripinfo_carflow_1.1 routing_carflow_1.1" vType="car_1" speedFactor="1.08" vaporized=""/>
</tripinfos>
