<?xml version="1.0" encoding="UTF-8"?>

<!-- generated on 10/29/20 13:58:57 by Eclipse SUMO GUI Version 1.7.0
<configuration xmlns:xsi="http://www.w3.org/2001/XMLSchema-instance" xsi:noNamespaceSchemaLocation="http://sumo.dlr.de/xsd/sumoConfiguration.xsd">

    <input>
        <net-file value="network.net.xml"/>
        <route-files value="routes.xml"/>
        <additional-files value="lanedetector.xml"/>
    </input>

    <output>
        <tripinfo-output value="tripinfo.xml"/>
    </output>

    <emissions>
        <device.emissions.probability value="1"/>
    </emissions>

    <traci_server>
        <remote-port value="49768"/>
    </traci_server>

</configuration>
-->

<detector xmlns:xsi="http://www.w3.org/2001/XMLSchema-instance" xsi:noNamespaceSchemaLocation="http://sumo.dlr.de/xsd/det_e2_file.xsd">
   <interval begin="0.00" end="297.00" id="gneJ1" sampledSeconds="188.75" nVehEntered="50" nVehLeft="50" nVehSeen="50" meanSpeed="9.01" meanTimeLoss="1.30" meanOccupancy="9.26" maxOccupancy="17.24" meanMaxJamLengthInVehicles="0.02" meanMaxJamLengthInMeters="0.00" maxJamLengthInVehicles="1" maxJamLengthInMeters="0.00" jamLengthInVehiclesSum="5" jamLengthInMetersSum="0.00" meanHaltingDuration="1.00" maxHaltingDuration="1.00" haltingDurationSum="11.00" meanIntervalHaltingDuration="1.00" maxIntervalHaltingDuration="1.00" intervalHaltingDurationSum="11.00" startedHalts="16.00" meanVehicleNumber="0.74" maxVehicleNumber="2" />
</detector>
