<?xml version="1.0" encoding="UTF-8"?>

<!-- generated on 10/29/20 13:58:57 by Eclipse SUMO GUI Version 1.7.0
<configuration xmlns:xsi="http://www.w3.org/2001/XMLSchema-instance" xsi:noNamespaceSchemaLocation="http://sumo.dlr.de/xsd/sumoConfiguration.xsd">

    <input>
        <net-file value="network.net.xml"/>
        <route-files value="routes.xml"/>
        <additional-files value="lanedetector.xml"/>
    </input>

    <output>
        <tripinfo-output value="tripinfo.xml"/>
    </output>

    <emissions>
        <device.emissions.probability value="1"/>
    </emissions>

    <traci_server>
        <remote-port value="49768"/>
    </traci_server>

</configuration>
-->

<tripinfos xmlns:xsi="http://www.w3.org/2001/XMLSchema-instance" xsi:noNamespaceSchemaLocation="http://sumo.dlr.de/xsd/tripinfo_file.xsd">
    <tripinfo id="0" depart="0.00" departLane="E1_0" departPos="5.10" departSpeed="0.00" departDelay="0.00" arrival="47.00" arrivalLane="E2_0" arrivalPos="200.00" arrivalSpeed="14.36" duration="47.00" routeLength="395.00" waitingTime="0.00" waitingCount="0" stopTime="0.00" timeLoss="19.74" rerouteNo="0" devices="tripinfo_0 emissions_0" vType="vehicle1" speedFactor="1.06" vaporized="">
        <emissions CO_abs="2923.099095" CO2_abs="146384.644413" HC_abs="16.651256" PMx_abs="2.270892" NOx_abs="57.945189" fuel_abs="62.925537" electricity_abs="0"/>
    </tripinfo>
    <tripinfo id="1" depart="5.00" departLane="E1_0" departPos="5.10" departSpeed="0.00" departDelay="4.00" arrival="49.00" arrivalLane="E2_0" arrivalPos="200.00" arrivalSpeed="12.88" duration="44.00" routeLength="395.00" waitingTime="0.00" waitingCount="0" stopTime="0.00" timeLoss="13.41" rerouteNo="0" devices="tripinfo_1 emissions_1" vType="vehicle1" speedFactor="0.94" vaporized="">
        <emissions CO_abs="2254.600757" CO2_abs="119846.284936" HC_abs="12.996364" PMx_abs="1.754645" NOx_abs="46.721503" fuel_abs="51.517690" electricity_abs="0"/>
    </tripinfo>
    <tripinfo id="2" depart="10.00" departLane="E1_0" departPos="5.10" departSpeed="0.00" departDelay="8.00" arrival="52.00" arrivalLane="E2_0" arrivalPos="200.00" arrivalSpeed="13.81" duration="42.00" routeLength="395.00" waitingTime="0.00" waitingCount="0" stopTime="0.00" timeLoss="13.63" rerouteNo="0" devices="tripinfo_2 emissions_2" vType="vehicle1" speedFactor="1.01" vaporized="">
        <emissions CO_abs="2280.428024" CO2_abs="123620.524076" HC_abs="13.195602" PMx_abs="1.879251" NOx_abs="48.505903" fuel_abs="53.139968" electricity_abs="0"/>
    </tripinfo>
    <tripinfo id="3" depart="15.00" departLane="E1_0" departPos="5.10" departSpeed="0.00" departDelay="12.00" arrival="57.00" arrivalLane="E2_0" arrivalPos="200.00" arrivalSpeed="14.97" duration="42.00" routeLength="395.00" waitingTime="0.00" waitingCount="0" stopTime="0.00" timeLoss="15.71" rerouteNo="0" devices="tripinfo_3 emissions_3" vType="vehicle1" speedFactor="1.08" vaporized="">
        <emissions CO_abs="2497.942696" CO2_abs="132195.379446" HC_abs="14.418483" PMx_abs="2.085613" NOx_abs="52.308840" fuel_abs="56.825931" electricity_abs="0"/>
    </tripinfo>
    <tripinfo id="4" depart="20.00" departLane="E1_0" departPos="5.10" departSpeed="0.00" departDelay="16.00" arrival="66.00" arrivalLane="E2_0" arrivalPos="200.00" arrivalSpeed="14.26" duration="46.00" routeLength="395.00" waitingTime="0.00" waitingCount="0" stopTime="0.00" timeLoss="17.87" rerouteNo="0" devices="tripinfo_4 emissions_4" vType="vehicle1" speedFactor="1.03" vaporized="">
        <emissions CO_abs="2825.498409" CO2_abs="145625.115325" HC_abs="16.206664" PMx_abs="2.266930" NOx_abs="57.609182" fuel_abs="62.598971" electricity_abs="0"/>
    </tripinfo>
    <tripinfo id="5" depart="25.00" departLane="E1_0" departPos="5.10" departSpeed="0.00" departDelay="20.00" arrival="70.00" arrivalLane="E2_0" arrivalPos="200.00" arrivalSpeed="11.42" duration="45.00" routeLength="395.00" waitingTime="0.00" waitingCount="0" stopTime="0.00" timeLoss="10.68" rerouteNo="0" devices="tripinfo_5 emissions_5" vType="vehicle1" speedFactor="0.83" vaporized="">
        <emissions CO_abs="2119.485855" CO2_abs="99250.828958" HC_abs="11.909673" PMx_abs="1.473192" NOx_abs="38.979800" fuel_abs="42.664600" electricity_abs="0"/>
    </tripinfo>
    <tripinfo id="6" depart="30.00" departLane="E1_0" departPos="5.10" departSpeed="0.00" departDelay="24.00" arrival="74.00" arrivalLane="E2_0" arrivalPos="200.00" arrivalSpeed="14.32" duration="44.00" routeLength="395.00" waitingTime="0.00" waitingCount="0" stopTime="0.00" timeLoss="16.22" rerouteNo="0" devices="tripinfo_6 emissions_6" vType="vehicle1" speedFactor="1.05" vaporized="">
        <emissions CO_abs="2552.437272" CO2_abs="139678.613764" HC_abs="14.825610" PMx_abs="2.139698" NOx_abs="54.977290" fuel_abs="60.042709" electricity_abs="0"/>
    </tripinfo>
    <tripinfo id="7" depart="35.00" departLane="E1_0" departPos="5.10" departSpeed="0.00" departDelay="28.00" arrival="81.00" arrivalLane="E2_0" arrivalPos="200.00" arrivalSpeed="12.22" duration="46.00" routeLength="395.00" waitingTime="0.00" waitingCount="0" stopTime="0.00" timeLoss="13.64" rerouteNo="0" devices="tripinfo_7 emissions_7" vType="vehicle1" speedFactor="0.89" vaporized="">
        <emissions CO_abs="2474.193171" CO2_abs="126732.564317" HC_abs="14.152411" PMx_abs="1.847207" NOx_abs="49.446032" fuel_abs="54.477940" electricity_abs="0"/>
    </tripinfo>
    <tripinfo id="8" depart="40.00" departLane="E1_0" departPos="5.10" departSpeed="0.00" departDelay="32.00" arrival="84.00" arrivalLane="E2_0" arrivalPos="200.00" arrivalSpeed="12.91" duration="44.00" routeLength="395.00" waitingTime="0.00" waitingCount="0" stopTime="0.00" timeLoss="13.43" rerouteNo="0" devices="tripinfo_8 emissions_8" vType="vehicle1" speedFactor="0.94" vaporized="">
        <emissions CO_abs="2376.518901" CO2_abs="121977.609425" HC_abs="13.612040" PMx_abs="1.835046" NOx_abs="47.860631" fuel_abs="52.433868" electricity_abs="0"/>
    </tripinfo>
    <tripinfo id="9" depart="45.00" departLane="E1_0" departPos="5.10" departSpeed="0.00" departDelay="36.00" arrival="91.00" arrivalLane="E2_0" arrivalPos="200.00" arrivalSpeed="11.74" duration="46.00" routeLength="395.00" waitingTime="0.00" waitingCount="0" stopTime="0.00" timeLoss="12.37" rerouteNo="0" devices="tripinfo_9 emissions_9" vType="vehicle1" speedFactor="0.86" vaporized="">
        <emissions CO_abs="2356.052670" CO2_abs="110383.974408" HC_abs="13.245150" PMx_abs="1.660981" NOx_abs="43.462488" fuel_abs="47.450333" electricity_abs="0"/>
    </tripinfo>
    <tripinfo id="10" depart="51.00" departLane="E1_0" departPos="5.10" departSpeed="0.00" departDelay="41.00" arrival="96.00" arrivalLane="E2_0" arrivalPos="200.00" arrivalSpeed="14.92" duration="45.00" routeLength="395.00" waitingTime="0.00" waitingCount="0" stopTime="0.00" timeLoss="17.96" rerouteNo="0" devices="tripinfo_10 emissions_10" vType="vehicle1" speedFactor="1.09" vaporized="">
        <emissions CO_abs="2669.503296" CO2_abs="146158.794785" HC_abs="15.508593" PMx_abs="2.237550" NOx_abs="57.412287" fuel_abs="62.828313" electricity_abs="0"/>
    </tripinfo>
    <tripinfo id="11" depart="56.00" departLane="E1_0" departPos="5.10" departSpeed="0.00" departDelay="45.00" arrival="102.00" arrivalLane="E2_0" arrivalPos="200.00" arrivalSpeed="14.11" duration="46.00" routeLength="395.00" waitingTime="0.00" waitingCount="0" stopTime="0.00" timeLoss="17.46" rerouteNo="0" devices="tripinfo_11 emissions_11" vType="vehicle1" speedFactor="1.03" vaporized="">
        <emissions CO_abs="2740.318998" CO2_abs="143184.422935" HC_abs="15.714549" PMx_abs="2.189883" NOx_abs="56.373228" fuel_abs="61.549827" electricity_abs="0"/>
    </tripinfo>
    <tripinfo id="12" depart="61.00" departLane="E1_0" departPos="5.10" departSpeed="0.00" departDelay="49.00" arrival="104.00" arrivalLane="E2_0" arrivalPos="200.00" arrivalSpeed="14.45" duration="43.00" routeLength="395.00" waitingTime="0.00" waitingCount="0" stopTime="0.00" timeLoss="15.71" rerouteNo="0" devices="tripinfo_12 emissions_12" vType="vehicle1" speedFactor="1.05" vaporized="">
        <emissions CO_abs="2546.703142" CO2_abs="137230.744438" HC_abs="14.751489" PMx_abs="2.129009" NOx_abs="54.085404" fuel_abs="58.990463" electricity_abs="0"/>
    </tripinfo>
    <tripinfo id="13" depart="66.00" departLane="E1_0" departPos="5.10" departSpeed="0.00" departDelay="53.00" arrival="111.00" arrivalLane="E2_0" arrivalPos="200.00" arrivalSpeed="15.29" duration="45.00" routeLength="395.00" waitingTime="0.00" waitingCount="0" stopTime="0.00" timeLoss="19.66" rerouteNo="0" devices="tripinfo_13 emissions_13" vType="vehicle1" speedFactor="1.12" vaporized="">
        <emissions CO_abs="2856.924269" CO2_abs="148920.388675" HC_abs="16.397968" PMx_abs="2.343090" NOx_abs="59.017625" fuel_abs="64.015423" electricity_abs="0"/>
    </tripinfo>
    <tripinfo id="14" depart="71.00" departLane="E1_0" departPos="5.10" departSpeed="0.00" departDelay="57.00" arrival="116.00" arrivalLane="E2_0" arrivalPos="200.00" arrivalSpeed="13.54" duration="45.00" routeLength="395.00" waitingTime="0.00" waitingCount="0" stopTime="0.00" timeLoss="15.50" rerouteNo="0" devices="tripinfo_14 emissions_14" vType="vehicle1" speedFactor="0.99" vaporized="">
        <emissions CO_abs="2550.649277" CO2_abs="134139.069724" HC_abs="14.635639" PMx_abs="2.023629" NOx_abs="52.599721" fuel_abs="57.661586" electricity_abs="0"/>
    </tripinfo>
    <tripinfo id="15" depart="76.00" departLane="E1_0" departPos="5.10" departSpeed="0.00" departDelay="61.00" arrival="123.00" arrivalLane="E2_0" arrivalPos="200.00" arrivalSpeed="12.75" duration="47.00" routeLength="395.00" waitingTime="0.00" waitingCount="0" stopTime="0.00" timeLoss="16.28" rerouteNo="0" devices="tripinfo_15 emissions_15" vType="vehicle1" speedFactor="0.93" vaporized="">
        <emissions CO_abs="2738.745845" CO2_abs="134711.843917" HC_abs="15.545090" PMx_abs="2.014495" NOx_abs="52.901150" fuel_abs="57.907969" electricity_abs="0"/>
    </tripinfo>
    <tripinfo id="16" depart="81.00" departLane="E1_0" departPos="5.10" departSpeed="0.00" departDelay="65.00" arrival="128.00" arrivalLane="E2_0" arrivalPos="200.00" arrivalSpeed="12.07" duration="47.00" routeLength="395.00" waitingTime="0.00" waitingCount="0" stopTime="0.00" timeLoss="14.26" rerouteNo="0" devices="tripinfo_16 emissions_16" vType="vehicle1" speedFactor="0.88" vaporized="">
        <emissions CO_abs="2560.673934" CO2_abs="123049.196497" HC_abs="14.463219" PMx_abs="1.831088" NOx_abs="48.351052" fuel_abs="52.894655" electricity_abs="0"/>
    </tripinfo>
    <tripinfo id="17" depart="86.00" departLane="E1_0" departPos="5.10" departSpeed="0.00" departDelay="69.00" arrival="130.00" arrivalLane="E2_0" arrivalPos="200.00" arrivalSpeed="12.94" duration="44.00" routeLength="395.00" waitingTime="0.00" waitingCount="0" stopTime="0.00" timeLoss="13.41" rerouteNo="0" devices="tripinfo_17 emissions_17" vType="vehicle1" speedFactor="0.94" vaporized="">
        <emissions CO_abs="2372.541712" CO2_abs="120284.684177" HC_abs="13.558900" PMx_abs="1.835104" NOx_abs="47.383625" fuel_abs="51.706123" electricity_abs="0"/>
    </tripinfo>
    <tripinfo id="18" depart="91.00" departLane="E1_0" departPos="5.10" departSpeed="0.00" departDelay="73.00" arrival="135.00" arrivalLane="E2_0" arrivalPos="200.00" arrivalSpeed="12.70" duration="44.00" routeLength="395.00" waitingTime="0.00" waitingCount="0" stopTime="0.00" timeLoss="12.79" rerouteNo="0" devices="tripinfo_18 emissions_18" vType="vehicle1" speedFactor="0.94" vaporized="">
        <emissions CO_abs="2300.317488" CO2_abs="116215.736476" HC_abs="13.135097" PMx_abs="1.768515" NOx_abs="45.724445" fuel_abs="49.957043" electricity_abs="0"/>
    </tripinfo>
    <tripinfo id="19" depart="96.00" departLane="E1_0" departPos="5.10" departSpeed="0.00" departDelay="77.00" arrival="139.00" arrivalLane="E2_0" arrivalPos="200.00" arrivalSpeed="15.81" duration="43.00" routeLength="395.00" waitingTime="0.00" waitingCount="0" stopTime="0.00" timeLoss="17.73" rerouteNo="0" devices="tripinfo_19 emissions_19" vType="vehicle1" speedFactor="1.16" vaporized="">
        <emissions CO_abs="2592.939996" CO2_abs="141307.748855" HC_abs="15.067876" PMx_abs="2.227961" NOx_abs="55.871195" fuel_abs="60.742944" electricity_abs="0"/>
    </tripinfo>
    <tripinfo id="20" depart="101.00" departLane="E1_0" departPos="5.10" departSpeed="0.00" departDelay="81.00" arrival="143.00" arrivalLane="E2_0" arrivalPos="200.00" arrivalSpeed="13.87" duration="42.00" routeLength="395.00" waitingTime="0.00" waitingCount="0" stopTime="0.00" timeLoss="13.53" rerouteNo="0" devices="tripinfo_20 emissions_20" vType="vehicle1" speedFactor="1.02" vaporized="">
        <emissions CO_abs="2256.117006" CO2_abs="124602.508540" HC_abs="13.120322" PMx_abs="1.893375" NOx_abs="48.868099" fuel_abs="53.562056" electricity_abs="0"/>
    </tripinfo>
    <tripinfo id="21" depart="105.00" departLane="E1_0" departPos="5.10" departSpeed="0.00" departDelay="84.00" arrival="152.00" arrivalLane="E2_0" arrivalPos="200.00" arrivalSpeed="13.89" duration="47.00" routeLength="395.00" waitingTime="1.00" waitingCount="1" stopTime="0.00" timeLoss="18.40" rerouteNo="0" devices="tripinfo_21 emissions_21" vType="vehicle1" speedFactor="1.01" vaporized="">
        <emissions CO_abs="2970.360729" CO2_abs="143248.591578" HC_abs="16.792727" PMx_abs="2.259244" NOx_abs="56.901793" fuel_abs="61.577500" electricity_abs="0"/>
    </tripinfo>
    <tripinfo id="22" depart="111.00" departLane="E1_0" departPos="5.10" departSpeed="0.00" departDelay="89.00" arrival="158.00" arrivalLane="E2_0" arrivalPos="200.00" arrivalSpeed="13.38" duration="47.00" routeLength="395.00" waitingTime="0.00" waitingCount="0" stopTime="0.00" timeLoss="16.89" rerouteNo="0" devices="tripinfo_22 emissions_22" vType="vehicle1" speedFactor="0.98" vaporized="">
        <emissions CO_abs="2783.549029" CO2_abs="137287.922570" HC_abs="15.813625" PMx_abs="2.118063" NOx_abs="54.279656" fuel_abs="59.015235" electricity_abs="0"/>
    </tripinfo>
    <tripinfo id="23" depart="116.00" departLane="E1_0" departPos="5.10" departSpeed="0.00" departDelay="93.00" arrival="160.00" arrivalLane="E2_0" arrivalPos="200.00" arrivalSpeed="12.23" duration="44.00" routeLength="395.00" waitingTime="0.00" waitingCount="0" stopTime="0.00" timeLoss="12.01" rerouteNo="0" devices="tripinfo_23 emissions_23" vType="vehicle1" speedFactor="0.89" vaporized="">
        <emissions CO_abs="2265.812514" CO2_abs="112852.762575" HC_abs="12.894673" PMx_abs="1.688250" NOx_abs="44.259853" fuel_abs="48.511486" electricity_abs="0"/>
    </tripinfo>
    <tripinfo id="24" depart="121.00" departLane="E1_0" departPos="5.10" departSpeed="0.00" departDelay="97.00" arrival="169.00" arrivalLane="E2_0" arrivalPos="200.00" arrivalSpeed="11.45" duration="48.00" routeLength="395.00" waitingTime="0.00" waitingCount="0" stopTime="0.00" timeLoss="13.56" rerouteNo="0" devices="tripinfo_24 emissions_24" vType="vehicle1" speedFactor="0.83" vaporized="">
        <emissions CO_abs="2612.570464" CO2_abs="126151.158052" HC_abs="14.755886" PMx_abs="1.800342" NOx_abs="49.063672" fuel_abs="54.228190" electricity_abs="0"/>
    </tripinfo>
    <tripinfo id="25" depart="126.00" departLane="E1_0" departPos="5.10" departSpeed="0.00" departDelay="101.00" arrival="171.00" arrivalLane="E2_0" arrivalPos="200.00" arrivalSpeed="11.91" duration="45.00" routeLength="395.00" waitingTime="0.00" waitingCount="0" stopTime="0.00" timeLoss="12.08" rerouteNo="0" devices="tripinfo_25 emissions_25" vType="vehicle1" speedFactor="0.87" vaporized="">
        <emissions CO_abs="2209.734585" CO2_abs="114875.030694" HC_abs="12.678903" PMx_abs="1.673585" NOx_abs="44.821977" fuel_abs="49.380769" electricity_abs="0"/>
    </tripinfo>
    <tripinfo id="26" depart="131.00" departLane="E1_0" departPos="5.10" departSpeed="0.00" departDelay="105.00" arrival="175.00" arrivalLane="E2_0" arrivalPos="200.00" arrivalSpeed="12.67" duration="44.00" routeLength="395.00" waitingTime="0.00" waitingCount="0" stopTime="0.00" timeLoss="12.10" rerouteNo="0" devices="tripinfo_26 emissions_26" vType="vehicle1" speedFactor="0.92" vaporized="">
        <emissions CO_abs="2206.473406" CO2_abs="120024.623301" HC_abs="12.786637" PMx_abs="1.746869" NOx_abs="46.655843" fuel_abs="51.594331" electricity_abs="0"/>
    </tripinfo>
    <tripinfo id="27" depart="136.00" departLane="E1_0" departPos="5.10" departSpeed="0.00" departDelay="109.00" arrival="182.00" arrivalLane="E2_0" arrivalPos="200.00" arrivalSpeed="12.84" duration="46.00" routeLength="395.00" waitingTime="0.00" waitingCount="0" stopTime="0.00" timeLoss="15.27" rerouteNo="0" devices="tripinfo_27 emissions_27" vType="vehicle1" speedFactor="0.95" vaporized="">
        <emissions CO_abs="2587.099655" CO2_abs="132280.780438" HC_abs="14.805145" PMx_abs="1.994790" NOx_abs="52.001623" fuel_abs="56.862831" electricity_abs="0"/>
    </tripinfo>
    <tripinfo id="28" depart="141.00" departLane="E1_0" departPos="5.10" departSpeed="0.00" departDelay="113.00" arrival="183.00" arrivalLane="E2_0" arrivalPos="200.00" arrivalSpeed="13.39" duration="42.00" routeLength="395.00" waitingTime="0.00" waitingCount="0" stopTime="0.00" timeLoss="16.73" rerouteNo="0" devices="tripinfo_28 emissions_28" vType="vehicle1" speedFactor="1.13" vaporized="">
        <emissions CO_abs="2328.275302" CO2_abs="128660.690284" HC_abs="13.531915" PMx_abs="1.961629" NOx_abs="50.465539" fuel_abs="55.306510" electricity_abs="0"/>
    </tripinfo>
    <tripinfo id="29" depart="146.00" departLane="E1_0" departPos="5.10" departSpeed="0.00" departDelay="117.00" arrival="189.00" arrivalLane="E2_0" arrivalPos="200.00" arrivalSpeed="12.71" duration="43.00" routeLength="395.00" waitingTime="0.00" waitingCount="0" stopTime="0.00" timeLoss="11.50" rerouteNo="0" devices="tripinfo_29 emissions_29" vType="vehicle1" speedFactor="0.93" vaporized="">
        <emissions CO_abs="2115.490961" CO2_abs="110351.444786" HC_abs="12.160237" PMx_abs="1.667711" NOx_abs="43.331165" fuel_abs="47.436151" electricity_abs="0"/>
    </tripinfo>
    <tripinfo id="30" depart="151.00" departLane="E1_0" departPos="5.10" departSpeed="0.00" departDelay="121.00" arrival="197.00" arrivalLane="E2_0" arrivalPos="200.00" arrivalSpeed="15.96" duration="46.00" routeLength="395.00" waitingTime="0.00" waitingCount="0" stopTime="0.00" timeLoss="21.82" rerouteNo="0" devices="tripinfo_30 emissions_30" vType="vehicle1" speedFactor="1.18" vaporized="">
        <emissions CO_abs="2972.849136" CO2_abs="153485.991195" HC_abs="17.067141" PMx_abs="2.399393" NOx_abs="60.747188" fuel_abs="65.978062" electricity_abs="0"/>
    </tripinfo>
    <tripinfo id="31" depart="156.00" departLane="E1_0" departPos="5.10" departSpeed="0.00" departDelay="125.00" arrival="202.00" arrivalLane="E2_0" arrivalPos="200.00" arrivalSpeed="15.29" duration="46.00" routeLength="395.00" waitingTime="0.00" waitingCount="0" stopTime="0.00" timeLoss="21.32" rerouteNo="0" devices="tripinfo_31 emissions_31" vType="vehicle1" speedFactor="1.15" vaporized="">
        <emissions CO_abs="2905.967806" CO2_abs="150439.400190" HC_abs="16.691244" PMx_abs="2.350600" NOx_abs="59.619571" fuel_abs="64.668429" electricity_abs="0"/>
    </tripinfo>
    <tripinfo id="32" depart="161.00" departLane="E1_0" departPos="5.10" departSpeed="0.00" departDelay="129.00" arrival="207.00" arrivalLane="E2_0" arrivalPos="200.00" arrivalSpeed="13.93" duration="46.00" routeLength="395.00" waitingTime="0.00" waitingCount="0" stopTime="0.00" timeLoss="16.83" rerouteNo="0" devices="tripinfo_32 emissions_32" vType="vehicle1" speedFactor="1.01" vaporized="">
        <emissions CO_abs="2746.208974" CO2_abs="141689.396034" HC_abs="15.738828" PMx_abs="2.198360" NOx_abs="56.017812" fuel_abs="60.907152" electricity_abs="0"/>
    </tripinfo>
    <tripinfo id="33" depart="166.00" departLane="E1_0" departPos="5.10" departSpeed="0.00" departDelay="133.00" arrival="209.00" arrivalLane="E2_0" arrivalPos="200.00" arrivalSpeed="15.93" duration="43.00" routeLength="395.00" waitingTime="0.00" waitingCount="0" stopTime="0.00" timeLoss="18.36" rerouteNo="0" devices="tripinfo_33 emissions_33" vType="vehicle1" speedFactor="1.17" vaporized="">
        <emissions CO_abs="2589.609114" CO2_abs="143673.054762" HC_abs="15.072478" PMx_abs="2.235924" NOx_abs="56.633602" fuel_abs="61.759698" electricity_abs="0"/>
    </tripinfo>
    <tripinfo id="34" depart="171.00" departLane="E1_0" departPos="5.10" departSpeed="0.00" departDelay="137.00" arrival="215.00" arrivalLane="E2_0" arrivalPos="200.00" arrivalSpeed="13.71" duration="44.00" routeLength="395.00" waitingTime="0.00" waitingCount="0" stopTime="0.00" timeLoss="15.20" rerouteNo="0" devices="tripinfo_34 emissions_34" vType="vehicle1" speedFactor="0.99" vaporized="">
        <emissions CO_abs="2568.039423" CO2_abs="131457.035386" HC_abs="14.696864" PMx_abs="2.047707" NOx_abs="52.011549" fuel_abs="56.508636" electricity_abs="0"/>
    </tripinfo>
    <tripinfo id="35" depart="176.00" departLane="E1_0" departPos="5.10" departSpeed="0.00" departDelay="141.00" arrival="223.00" arrivalLane="E2_0" arrivalPos="200.00" arrivalSpeed="13.83" duration="47.00" routeLength="395.00" waitingTime="0.00" waitingCount="0" stopTime="0.00" timeLoss="18.78" rerouteNo="0" devices="tripinfo_35 emissions_35" vType="vehicle1" speedFactor="1.02" vaporized="">
        <emissions CO_abs="2961.417645" CO2_abs="143561.967059" HC_abs="16.762017" PMx_abs="2.261229" NOx_abs="57.055349" fuel_abs="61.712196" electricity_abs="0"/>
    </tripinfo>
    <tripinfo id="36" depart="182.00" departLane="E1_0" departPos="5.10" departSpeed="0.00" departDelay="146.00" arrival="225.00" arrivalLane="E2_0" arrivalPos="200.00" arrivalSpeed="13.14" duration="43.00" routeLength="395.00" waitingTime="0.00" waitingCount="0" stopTime="0.00" timeLoss="13.36" rerouteNo="0" devices="tripinfo_36 emissions_36" vType="vehicle1" speedFactor="0.97" vaporized="">
        <emissions CO_abs="2319.169472" CO2_abs="125318.958959" HC_abs="13.433584" PMx_abs="1.889843" NOx_abs="49.093535" fuel_abs="53.870096" electricity_abs="0"/>
    </tripinfo>
    <tripinfo id="37" depart="187.00" departLane="E1_0" departPos="5.10" departSpeed="0.00" departDelay="150.00" arrival="231.00" arrivalLane="E2_0" arrivalPos="200.00" arrivalSpeed="16.37" duration="44.00" routeLength="395.00" waitingTime="0.00" waitingCount="0" stopTime="0.00" timeLoss="19.43" rerouteNo="0" devices="tripinfo_37 emissions_37" vType="vehicle1" speedFactor="1.18" vaporized="">
        <emissions CO_abs="2800.313942" CO2_abs="153947.755081" HC_abs="16.307445" PMx_abs="2.439156" NOx_abs="60.909167" fuel_abs="66.176377" electricity_abs="0"/>
    </tripinfo>
    <tripinfo id="38" depart="192.00" departLane="E1_0" departPos="5.10" departSpeed="0.00" departDelay="154.00" arrival="236.00" arrivalLane="E2_0" arrivalPos="200.00" arrivalSpeed="15.01" duration="44.00" routeLength="395.00" waitingTime="0.00" waitingCount="0" stopTime="0.00" timeLoss="17.84" rerouteNo="0" devices="tripinfo_38 emissions_38" vType="vehicle1" speedFactor="1.10" vaporized="">
        <emissions CO_abs="2723.731592" CO2_abs="140748.400677" HC_abs="15.602546" PMx_abs="2.214576" NOx_abs="55.670224" fuel_abs="60.502615" electricity_abs="0"/>
    </tripinfo>
    <tripinfo id="39" depart="198.00" departLane="E1_0" departPos="5.10" departSpeed="0.00" departDelay="159.00" arrival="245.00" arrivalLane="E2_0" arrivalPos="200.00" arrivalSpeed="12.32" duration="47.00" routeLength="395.00" waitingTime="0.00" waitingCount="0" stopTime="0.00" timeLoss="15.29" rerouteNo="0" devices="tripinfo_39 emissions_39" vType="vehicle1" speedFactor="0.90" vaporized="">
        <emissions CO_abs="2687.317600" CO2_abs="128427.458055" HC_abs="15.168865" PMx_abs="1.943128" NOx_abs="50.623087" fuel_abs="55.206555" electricity_abs="0"/>
    </tripinfo>
    <tripinfo id="40" depart="203.00" departLane="E1_0" departPos="5.10" departSpeed="0.00" departDelay="163.00" arrival="247.00" arrivalLane="E2_0" arrivalPos="200.00" arrivalSpeed="13.70" duration="44.00" routeLength="395.00" waitingTime="0.00" waitingCount="0" stopTime="0.00" timeLoss="15.86" rerouteNo="0" devices="tripinfo_40 emissions_40" vType="vehicle1" speedFactor="1.03" vaporized="">
        <emissions CO_abs="2360.667040" CO2_abs="127073.695632" HC_abs="13.664183" PMx_abs="1.933546" NOx_abs="50.001075" fuel_abs="54.624364" electricity_abs="0"/>
    </tripinfo>
    <tripinfo id="41" depart="208.00" departLane="E1_0" departPos="5.10" departSpeed="0.00" departDelay="167.00" arrival="252.00" arrivalLane="E2_0" arrivalPos="200.00" arrivalSpeed="12.93" duration="44.00" routeLength="395.00" waitingTime="0.00" waitingCount="0" stopTime="0.00" timeLoss="14.11" rerouteNo="0" devices="tripinfo_41 emissions_41" vType="vehicle1" speedFactor="0.96" vaporized="">
        <emissions CO_abs="2421.591448" CO2_abs="123847.816759" HC_abs="13.863844" PMx_abs="1.885666" NOx_abs="48.759117" fuel_abs="53.237775" electricity_abs="0"/>
    </tripinfo>
    <tripinfo id="42" depart="213.00" departLane="E1_0" departPos="5.10" departSpeed="0.00" departDelay="171.00" arrival="256.00" arrivalLane="E2_0" arrivalPos="200.00" arrivalSpeed="15.08" duration="43.00" routeLength="395.00" waitingTime="0.00" waitingCount="0" stopTime="0.00" timeLoss="16.80" rerouteNo="0" devices="tripinfo_42 emissions_42" vType="vehicle1" speedFactor="1.09" vaporized="">
        <emissions CO_abs="2632.739887" CO2_abs="143411.409652" HC_abs="15.294949" PMx_abs="2.246582" NOx_abs="56.599542" fuel_abs="61.647254" electricity_abs="0"/>
    </tripinfo>
    <tripinfo id="43" depart="218.00" departLane="E1_0" departPos="5.10" departSpeed="0.00" departDelay="175.00" arrival="262.00" arrivalLane="E2_0" arrivalPos="200.00" arrivalSpeed="14.12" duration="44.00" routeLength="395.00" waitingTime="0.00" waitingCount="0" stopTime="0.00" timeLoss="16.43" rerouteNo="0" devices="tripinfo_43 emissions_43" vType="vehicle1" speedFactor="1.04" vaporized="">
        <emissions CO_abs="2631.048481" CO2_abs="136877.606512" HC_abs="15.129069" PMx_abs="2.141017" NOx_abs="54.217537" fuel_abs="58.838697" electricity_abs="0"/>
    </tripinfo>
    <tripinfo id="44" depart="223.00" departLane="E1_0" departPos="5.10" departSpeed="0.00" departDelay="179.00" arrival="269.00" arrivalLane="E2_0" arrivalPos="200.00" arrivalSpeed="14.37" duration="46.00" routeLength="395.00" waitingTime="0.00" waitingCount="0" stopTime="0.00" timeLoss="18.23" rerouteNo="0" devices="tripinfo_44 emissions_44" vType="vehicle1" speedFactor="1.04" vaporized="">
        <emissions CO_abs="2810.361556" CO2_abs="142836.864661" HC_abs="16.053865" PMx_abs="2.205232" NOx_abs="56.379235" fuel_abs="61.400462" electricity_abs="0"/>
    </tripinfo>
    <tripinfo id="45" depart="228.00" departLane="E1_0" departPos="5.10" departSpeed="0.00" departDelay="183.00" arrival="271.00" arrivalLane="E2_0" arrivalPos="200.00" arrivalSpeed="14.99" duration="43.00" routeLength="395.00" waitingTime="0.00" waitingCount="0" stopTime="0.00" timeLoss="16.35" rerouteNo="0" devices="tripinfo_45 emissions_45" vType="vehicle1" speedFactor="1.09" vaporized="">
        <emissions CO_abs="2538.977401" CO2_abs="136687.334636" HC_abs="14.664473" PMx_abs="2.115724" NOx_abs="53.772919" fuel_abs="58.756880" electricity_abs="0"/>
    </tripinfo>
    <tripinfo id="46" depart="234.00" departLane="E1_0" departPos="5.10" departSpeed="0.00" departDelay="188.00" arrival="279.00" arrivalLane="E2_0" arrivalPos="200.00" arrivalSpeed="13.56" duration="45.00" routeLength="395.00" waitingTime="0.00" waitingCount="0" stopTime="0.00" timeLoss="15.54" rerouteNo="0" devices="tripinfo_46 emissions_46" vType="vehicle1" speedFactor="1.00" vaporized="">
        <emissions CO_abs="2552.337332" CO2_abs="127999.101986" HC_abs="14.562391" PMx_abs="2.005466" NOx_abs="50.845585" fuel_abs="55.022212" electricity_abs="0"/>
    </tripinfo>
    <tripinfo id="47" depart="239.00" departLane="E1_0" departPos="5.10" departSpeed="0.00" departDelay="192.00" arrival="286.00" arrivalLane="E2_0" arrivalPos="200.00" arrivalSpeed="12.17" duration="47.00" routeLength="395.00" waitingTime="0.00" waitingCount="0" stopTime="0.00" timeLoss="14.54" rerouteNo="0" devices="tripinfo_47 emissions_47" vType="vehicle1" speedFactor="0.90" vaporized="">
        <emissions CO_abs="2572.948067" CO2_abs="121938.382394" HC_abs="14.505964" PMx_abs="1.884529" NOx_abs="48.383693" fuel_abs="52.417076" electricity_abs="0"/>
    </tripinfo>
    <tripinfo id="48" depart="244.00" departLane="E1_0" departPos="5.10" departSpeed="0.00" departDelay="196.00" arrival="291.00" arrivalLane="E2_0" arrivalPos="200.00" arrivalSpeed="11.94" duration="47.00" routeLength="395.00" waitingTime="0.00" waitingCount="0" stopTime="0.00" timeLoss="13.78" rerouteNo="0" devices="tripinfo_48 emissions_48" vType="vehicle1" speedFactor="0.88" vaporized="">
        <emissions CO_abs="2517.179811" CO2_abs="121666.720860" HC_abs="14.231957" PMx_abs="1.793226" NOx_abs="47.618749" fuel_abs="52.300398" electricity_abs="0"/>
    </tripinfo>
    <tripinfo id="49" depart="250.00" departLane="E1_0" departPos="5.10" departSpeed="0.00" departDelay="201.00" arrival="296.00" arrivalLane="E2_0" arrivalPos="200.00" arrivalSpeed="11.59" duration="46.00" routeLength="395.00" waitingTime="0.00" waitingCount="0" stopTime="0.00" timeLoss="12.24" rerouteNo="0" devices="tripinfo_49 emissions_49" vType="vehicle1" speedFactor="0.85" vaporized="">
        <emissions CO_abs="2341.315945" CO2_abs="113467.971721" HC_abs="13.245112" PMx_abs="1.680859" NOx_abs="44.545008" fuel_abs="48.776007" electricity_abs="0"/>
    </tripinfo>
</tripinfos>
