<?xml version="1.0" encoding="UTF-8"?>

<!-- generated on 10/29/20 13:57:42 by Eclipse SUMO GUI Version 1.7.0
<configuration xmlns:xsi="http://www.w3.org/2001/XMLSchema-instance" xsi:noNamespaceSchemaLocation="http://sumo.dlr.de/xsd/sumoConfiguration.xsd">

    <input>
        <net-file value="network.net.xml"/>
        <route-files value="routes.xml"/>
        <additional-files value="lanedetector.xml"/>
    </input>

    <output>
        <tripinfo-output value="tripinfo.xml"/>
    </output>

    <traci_server>
        <remote-port value="49765"/>
    </traci_server>

</configuration>
-->

<tripinfos xmlns:xsi="http://www.w3.org/2001/XMLSchema-instance" xsi:noNamespaceSchemaLocation="http://sumo.dlr.de/xsd/tripinfo_file.xsd">
    <tripinfo id="0" depart="0.00" departLane="E1_0" departPos="5.10" departSpeed="0.00" departDelay="0.00" arrival="55.00" arrivalLane="E2_0" arrivalPos="200.00" arrivalSpeed="14.38" duration="55.00" routeLength="395.00" waitingTime="1.00" waitingCount="1" stopTime="0.00" timeLoss="27.77" rerouteNo="0" devices="tripinfo_0" vType="vehicle1" speedFactor="1.06" vaporized=""/>
    <tripinfo id="1" depart="5.00" departLane="E1_0" departPos="5.10" departSpeed="0.00" departDelay="4.00" arrival="57.00" arrivalLane="E2_0" arrivalPos="200.00" arrivalSpeed="12.66" duration="52.00" routeLength="395.00" waitingTime="0.00" waitingCount="0" stopTime="0.00" timeLoss="21.66" rerouteNo="0" devices="tripinfo_1" vType="vehicle1" speedFactor="0.94" vaporized=""/>
    <tripinfo id="2" depart="10.00" departLane="E1_0" departPos="5.10" departSpeed="0.00" departDelay="8.00" arrival="59.00" arrivalLane="E2_0" arrivalPos="200.00" arrivalSpeed="14.01" duration="49.00" routeLength="395.00" waitingTime="0.00" waitingCount="0" stopTime="0.00" timeLoss="20.43" rerouteNo="0" devices="tripinfo_2" vType="vehicle1" speedFactor="1.01" vaporized=""/>
    <tripinfo id="3" depart="15.00" departLane="E1_0" departPos="5.10" departSpeed="0.00" departDelay="12.00" arrival="61.00" arrivalLane="E2_0" arrivalPos="200.00" arrivalSpeed="14.93" duration="46.00" routeLength="395.00" waitingTime="0.00" waitingCount="0" stopTime="0.00" timeLoss="18.94" rerouteNo="0" devices="tripinfo_3" vType="vehicle1" speedFactor="1.08" vaporized=""/>
    <tripinfo id="4" depart="20.00" departLane="E1_0" departPos="5.10" departSpeed="0.00" departDelay="16.00" arrival="66.00" arrivalLane="E2_0" arrivalPos="200.00" arrivalSpeed="14.10" duration="46.00" routeLength="395.00" waitingTime="0.00" waitingCount="0" stopTime="0.00" timeLoss="18.00" rerouteNo="0" devices="tripinfo_4" vType="vehicle1" speedFactor="1.03" vaporized=""/>
    <tripinfo id="5" depart="25.00" departLane="E1_0" departPos="5.10" departSpeed="0.00" departDelay="20.00" arrival="71.00" arrivalLane="E2_0" arrivalPos="200.00" arrivalSpeed="11.35" duration="46.00" routeLength="395.00" waitingTime="0.00" waitingCount="0" stopTime="0.00" timeLoss="10.81" rerouteNo="0" devices="tripinfo_5" vType="vehicle1" speedFactor="0.83" vaporized=""/>
    <tripinfo id="6" depart="30.00" departLane="E1_0" departPos="5.10" departSpeed="0.00" departDelay="24.00" arrival="115.00" arrivalLane="E2_0" arrivalPos="200.00" arrivalSpeed="14.26" duration="85.00" routeLength="395.00" waitingTime="32.00" waitingCount="1" stopTime="0.00" timeLoss="57.08" rerouteNo="0" devices="tripinfo_6" vType="vehicle1" speedFactor="1.05" vaporized=""/>
    <tripinfo id="7" depart="35.00" departLane="E1_0" departPos="5.10" departSpeed="0.00" departDelay="28.00" arrival="117.00" arrivalLane="E2_0" arrivalPos="200.00" arrivalSpeed="12.25" duration="82.00" routeLength="395.00" waitingTime="27.00" waitingCount="1" stopTime="0.00" timeLoss="49.91" rerouteNo="0" devices="tripinfo_7" vType="vehicle1" speedFactor="0.89" vaporized=""/>
    <tripinfo id="8" depart="40.00" departLane="E1_0" departPos="5.10" departSpeed="0.00" departDelay="32.00" arrival="119.00" arrivalLane="E2_0" arrivalPos="200.00" arrivalSpeed="12.81" duration="79.00" routeLength="395.00" waitingTime="24.00" waitingCount="1" stopTime="0.00" timeLoss="48.61" rerouteNo="0" devices="tripinfo_8" vType="vehicle1" speedFactor="0.94" vaporized=""/>
    <tripinfo id="9" depart="46.00" departLane="E1_0" departPos="5.10" departSpeed="0.00" departDelay="37.00" arrival="122.00" arrivalLane="E2_0" arrivalPos="200.00" arrivalSpeed="11.84" duration="76.00" routeLength="395.00" waitingTime="20.00" waitingCount="1" stopTime="0.00" timeLoss="42.26" rerouteNo="0" devices="tripinfo_9" vType="vehicle1" speedFactor="0.86" vaporized=""/>
    <tripinfo id="10" depart="51.00" departLane="E1_0" departPos="5.10" departSpeed="0.00" departDelay="41.00" arrival="124.00" arrivalLane="E2_0" arrivalPos="200.00" arrivalSpeed="14.81" duration="73.00" routeLength="395.00" waitingTime="18.00" waitingCount="1" stopTime="0.00" timeLoss="46.13" rerouteNo="0" devices="tripinfo_10" vType="vehicle1" speedFactor="1.09" vaporized=""/>
    <tripinfo id="11" depart="56.00" departLane="E1_0" departPos="5.10" departSpeed="0.00" departDelay="45.00" arrival="125.00" arrivalLane="E2_0" arrivalPos="200.00" arrivalSpeed="14.23" duration="69.00" routeLength="395.00" waitingTime="15.00" waitingCount="1" stopTime="0.00" timeLoss="41.08" rerouteNo="0" devices="tripinfo_11" vType="vehicle1" speedFactor="1.03" vaporized=""/>
    <tripinfo id="12" depart="61.00" departLane="E1_0" departPos="5.10" departSpeed="0.00" departDelay="49.00" arrival="129.00" arrivalLane="E2_0" arrivalPos="200.00" arrivalSpeed="14.50" duration="68.00" routeLength="395.00" waitingTime="12.00" waitingCount="1" stopTime="0.00" timeLoss="40.00" rerouteNo="0" devices="tripinfo_12" vType="vehicle1" speedFactor="1.05" vaporized=""/>
    <tripinfo id="13" depart="66.00" departLane="E1_0" departPos="5.10" departSpeed="0.00" departDelay="53.00" arrival="130.00" arrivalLane="E2_0" arrivalPos="200.00" arrivalSpeed="15.14" duration="64.00" routeLength="395.00" waitingTime="7.00" waitingCount="1" stopTime="0.00" timeLoss="38.46" rerouteNo="0" devices="tripinfo_13" vType="vehicle1" speedFactor="1.12" vaporized=""/>
    <tripinfo id="14" depart="71.00" departLane="E1_0" departPos="5.10" departSpeed="0.00" departDelay="57.00" arrival="133.00" arrivalLane="E2_0" arrivalPos="200.00" arrivalSpeed="13.75" duration="62.00" routeLength="395.00" waitingTime="3.00" waitingCount="1" stopTime="0.00" timeLoss="33.19" rerouteNo="0" devices="tripinfo_14" vType="vehicle1" speedFactor="0.99" vaporized=""/>
    <tripinfo id="15" depart="76.00" departLane="E1_0" departPos="5.10" departSpeed="0.00" departDelay="61.00" arrival="175.00" arrivalLane="E2_0" arrivalPos="200.00" arrivalSpeed="12.69" duration="99.00" routeLength="395.00" waitingTime="31.00" waitingCount="1" stopTime="0.00" timeLoss="68.22" rerouteNo="0" devices="tripinfo_15" vType="vehicle1" speedFactor="0.93" vaporized=""/>
    <tripinfo id="16" depart="81.00" departLane="E1_0" departPos="5.10" departSpeed="0.00" departDelay="65.00" arrival="177.00" arrivalLane="E2_0" arrivalPos="200.00" arrivalSpeed="12.05" duration="96.00" routeLength="395.00" waitingTime="31.00" waitingCount="1" stopTime="0.00" timeLoss="63.58" rerouteNo="0" devices="tripinfo_16" vType="vehicle1" speedFactor="0.88" vaporized=""/>
    <tripinfo id="17" depart="86.00" departLane="E1_0" departPos="5.10" departSpeed="0.00" departDelay="69.00" arrival="179.00" arrivalLane="E2_0" arrivalPos="200.00" arrivalSpeed="13.06" duration="93.00" routeLength="395.00" waitingTime="31.00" waitingCount="1" stopTime="0.00" timeLoss="62.31" rerouteNo="0" devices="tripinfo_17" vType="vehicle1" speedFactor="0.94" vaporized=""/>
    <tripinfo id="18" depart="91.00" departLane="E1_0" departPos="5.10" departSpeed="0.00" departDelay="73.00" arrival="181.00" arrivalLane="E2_0" arrivalPos="200.00" arrivalSpeed="12.84" duration="90.00" routeLength="395.00" waitingTime="30.00" waitingCount="1" stopTime="0.00" timeLoss="59.44" rerouteNo="0" devices="tripinfo_18" vType="vehicle1" speedFactor="0.94" vaporized=""/>
    <tripinfo id="19" depart="96.00" departLane="E1_0" departPos="5.10" departSpeed="0.00" departDelay="77.00" arrival="184.00" arrivalLane="E2_0" arrivalPos="200.00" arrivalSpeed="15.84" duration="88.00" routeLength="395.00" waitingTime="29.00" waitingCount="1" stopTime="0.00" timeLoss="62.74" rerouteNo="0" devices="tripinfo_19" vType="vehicle1" speedFactor="1.16" vaporized=""/>
    <tripinfo id="20" depart="101.00" departLane="E1_0" departPos="5.10" departSpeed="0.00" departDelay="81.00" arrival="187.00" arrivalLane="E2_0" arrivalPos="200.00" arrivalSpeed="14.02" duration="86.00" routeLength="395.00" waitingTime="27.00" waitingCount="1" stopTime="0.00" timeLoss="57.52" rerouteNo="0" devices="tripinfo_20" vType="vehicle1" speedFactor="1.02" vaporized=""/>
    <tripinfo id="21" depart="106.00" departLane="E1_0" departPos="5.10" departSpeed="0.00" departDelay="85.00" arrival="189.00" arrivalLane="E2_0" arrivalPos="200.00" arrivalSpeed="13.96" duration="83.00" routeLength="395.00" waitingTime="25.00" waitingCount="1" stopTime="0.00" timeLoss="54.50" rerouteNo="0" devices="tripinfo_21" vType="vehicle1" speedFactor="1.01" vaporized=""/>
    <tripinfo id="22" depart="112.00" departLane="E1_0" departPos="5.10" departSpeed="0.00" departDelay="90.00" arrival="191.00" arrivalLane="E2_0" arrivalPos="200.00" arrivalSpeed="13.33" duration="79.00" routeLength="395.00" waitingTime="20.00" waitingCount="1" stopTime="0.00" timeLoss="49.58" rerouteNo="0" devices="tripinfo_22" vType="vehicle1" speedFactor="0.98" vaporized=""/>
    <tripinfo id="23" depart="118.00" departLane="E1_0" departPos="5.10" departSpeed="0.00" departDelay="95.00" arrival="194.00" arrivalLane="E2_0" arrivalPos="200.00" arrivalSpeed="12.34" duration="76.00" routeLength="395.00" waitingTime="18.00" waitingCount="1" stopTime="0.00" timeLoss="43.46" rerouteNo="0" devices="tripinfo_23" vType="vehicle1" speedFactor="0.89" vaporized=""/>
</tripinfos>
