<?xml version="1.0" encoding="UTF-8"?>

<!-- generated on 10/29/20 20:59:31 by Eclipse SUMO GUI Version 1.7.0
<configuration xmlns:xsi="http://www.w3.org/2001/XMLSchema-instance" xsi:noNamespaceSchemaLocation="http://sumo.dlr.de/xsd/sumoConfiguration.xsd">

    <input>
        <net-file value="network.net.xml"/>
        <route-files value="routes.xml"/>
    </input>

    <output>
        <tripinfo-output value="tripinfo.xml"/>
    </output>

    <emissions>
        <device.emissions.probability value="1"/>
    </emissions>

    <traci_server>
        <remote-port value="50640"/>
    </traci_server>

</configuration>
-->

<tripinfos xmlns:xsi="http://www.w3.org/2001/XMLSchema-instance" xsi:noNamespaceSchemaLocation="http://sumo.dlr.de/xsd/tripinfo_file.xsd">
    <tripinfo id="0" depart="0.00" departLane="n4o_0" departPos="5.10" departSpeed="0.00" departDelay="0.00" arrival="29.00" arrivalLane="n3i_0" arrivalPos="92.80" arrivalSpeed="12.41" duration="29.00" routeLength="189.53" waitingTime="0.00" waitingCount="0" stopTime="0.00" timeLoss="15.46" rerouteNo="0" devices="tripinfo_0 emissions_0" vType="vehicle1" speedFactor="1.06" vaporized="">
        <emissions CO_abs="2259.734810" CO2_abs="89419.201588" HC_abs="12.341167" PMx_abs="1.488735" NOx_abs="36.415911" fuel_abs="38.438340" electricity_abs="0"/>
    </tripinfo>
    <tripinfo id="1" depart="1.00" departLane="n2o_0" departPos="5.10" departSpeed="0.00" departDelay="0.00" arrival="32.00" arrivalLane="n3i_0" arrivalPos="92.80" arrivalSpeed="12.59" duration="31.00" routeLength="194.69" waitingTime="0.00" waitingCount="0" stopTime="0.00" timeLoss="14.84" rerouteNo="0" devices="tripinfo_1 emissions_1" vType="vehicle1" speedFactor="0.94" vaporized="">
        <emissions CO_abs="2359.485709" CO2_abs="92228.324828" HC_abs="12.859754" PMx_abs="1.538956" NOx_abs="37.573086" fuel_abs="39.645908" electricity_abs="0"/>
    </tripinfo>
    <tripinfo id="3" depart="7.00" departLane="n2o_0" departPos="5.10" departSpeed="0.00" departDelay="4.00" arrival="35.00" arrivalLane="n1i_0" arrivalPos="92.80" arrivalSpeed="12.74" duration="28.00" routeLength="189.53" waitingTime="0.00" waitingCount="0" stopTime="0.00" timeLoss="13.57" rerouteNo="0" devices="tripinfo_3 emissions_3" vType="vehicle1" speedFactor="1.01" vaporized="">
        <emissions CO_abs="1995.828988" CO2_abs="82923.089639" HC_abs="10.989113" PMx_abs="1.354058" NOx_abs="33.549924" fuel_abs="35.645837" electricity_abs="0"/>
    </tripinfo>
    <tripinfo id="10" depart="10.00" departLane="n4o_0" departPos="5.10" departSpeed="0.00" departDelay="0.00" arrival="47.00" arrivalLane="n1i_0" arrivalPos="92.80" arrivalSpeed="10.66" duration="37.00" routeLength="194.69" waitingTime="0.00" waitingCount="0" stopTime="0.00" timeLoss="21.09" rerouteNo="0" devices="tripinfo_10 emissions_10" vType="vehicle1" speedFactor="0.94" vaporized="">
        <emissions CO_abs="3192.821543" CO2_abs="103192.449554" HC_abs="16.898465" PMx_abs="1.783778" NOx_abs="42.600910" fuel_abs="44.359385" electricity_abs="0"/>
    </tripinfo>
    <tripinfo id="6" depart="6.00" departLane="n1o_0" departPos="5.10" departSpeed="0.00" departDelay="0.00" arrival="67.00" arrivalLane="n4i_0" arrivalPos="92.80" arrivalSpeed="11.05" duration="61.00" routeLength="189.53" waitingTime="25.00" waitingCount="1" stopTime="0.00" timeLoss="43.53" rerouteNo="0" devices="tripinfo_6 emissions_6" vType="vehicle1" speedFactor="0.83" vaporized="">
        <emissions CO_abs="6914.144734" CO2_abs="164564.853369" HC_abs="35.291558" PMx_abs="3.338852" NOx_abs="70.805919" fuel_abs="70.742406" electricity_abs="0"/>
    </tripinfo>
    <tripinfo id="7" depart="11.00" departLane="n1o_0" departPos="5.10" departSpeed="0.00" departDelay="4.00" arrival="69.00" arrivalLane="n4i_0" arrivalPos="92.80" arrivalSpeed="11.55" duration="58.00" routeLength="189.53" waitingTime="22.00" waitingCount="1" stopTime="0.00" timeLoss="43.95" rerouteNo="0" devices="tripinfo_7 emissions_7" vType="vehicle1" speedFactor="1.05" vaporized="">
        <emissions CO_abs="5684.228496" CO2_abs="143939.542522" HC_abs="29.202794" PMx_abs="2.808989" NOx_abs="61.258141" fuel_abs="61.875944" electricity_abs="0"/>
    </tripinfo>
    <tripinfo id="13" depart="16.00" departLane="n1o_0" departPos="5.10" departSpeed="0.00" departDelay="3.00" arrival="71.00" arrivalLane="n3i_0" arrivalPos="92.80" arrivalSpeed="12.25" duration="55.00" routeLength="194.90" waitingTime="18.00" waitingCount="1" stopTime="0.00" timeLoss="41.97" rerouteNo="0" devices="tripinfo_13 emissions_13" vType="vehicle1" speedFactor="1.09" vaporized="">
        <emissions CO_abs="5232.823043" CO2_abs="137643.525791" HC_abs="27.002854" PMx_abs="2.656992" NOx_abs="58.380140" fuel_abs="59.169319" electricity_abs="0"/>
    </tripinfo>
    <tripinfo id="16" depart="21.00" departLane="n1o_0" departPos="5.10" departSpeed="0.00" departDelay="5.00" arrival="74.00" arrivalLane="n2i_0" arrivalPos="92.80" arrivalSpeed="11.93" duration="53.00" routeLength="194.69" waitingTime="14.00" waitingCount="1" stopTime="0.00" timeLoss="38.73" rerouteNo="0" devices="tripinfo_16 emissions_16" vType="vehicle1" speedFactor="1.05" vaporized="">
        <emissions CO_abs="4727.468025" CO2_abs="128816.533076" HC_abs="24.492616" PMx_abs="2.435433" NOx_abs="54.358771" fuel_abs="55.374755" electricity_abs="0"/>
    </tripinfo>
    <tripinfo id="19" depart="27.00" departLane="n1o_0" departPos="5.10" departSpeed="0.00" departDelay="8.00" arrival="77.00" arrivalLane="n3i_0" arrivalPos="92.80" arrivalSpeed="12.05" duration="50.00" routeLength="194.90" waitingTime="11.00" waitingCount="1" stopTime="0.00" timeLoss="35.43" rerouteNo="0" devices="tripinfo_19 emissions_19" vType="vehicle1" speedFactor="0.99" vaporized="">
        <emissions CO_abs="4326.377212" CO2_abs="122102.742902" HC_abs="22.505805" PMx_abs="2.253451" NOx_abs="51.167717" fuel_abs="52.488629" electricity_abs="0"/>
    </tripinfo>
    <tripinfo id="20" depart="32.00" departLane="n1o_0" departPos="5.10" departSpeed="0.00" departDelay="12.00" arrival="79.00" arrivalLane="n3i_0" arrivalPos="92.80" arrivalSpeed="12.56" duration="47.00" routeLength="194.90" waitingTime="8.00" waitingCount="1" stopTime="0.00" timeLoss="31.19" rerouteNo="0" devices="tripinfo_20 emissions_20" vType="vehicle1" speedFactor="0.93" vaporized="">
        <emissions CO_abs="3901.751249" CO2_abs="117389.881078" HC_abs="20.460053" PMx_abs="2.104753" NOx_abs="48.787366" fuel_abs="50.462574" electricity_abs="0"/>
    </tripinfo>
    <tripinfo id="23" depart="37.00" departLane="n1o_0" departPos="5.10" departSpeed="0.00" departDelay="14.00" arrival="80.00" arrivalLane="n2i_0" arrivalPos="92.80" arrivalSpeed="12.76" duration="43.00" routeLength="194.69" waitingTime="5.00" waitingCount="1" stopTime="0.00" timeLoss="27.15" rerouteNo="0" devices="tripinfo_23 emissions_23" vType="vehicle1" speedFactor="0.94" vaporized="">
        <emissions CO_abs="3444.047810" CO2_abs="109566.750153" HC_abs="18.193428" PMx_abs="1.919139" NOx_abs="45.261247" fuel_abs="47.099530" electricity_abs="0"/>
    </tripinfo>
    <tripinfo id="27" depart="42.00" departLane="n1o_0" departPos="5.10" departSpeed="0.00" departDelay="15.00" arrival="84.00" arrivalLane="n2i_0" arrivalPos="92.80" arrivalSpeed="11.71" duration="42.00" routeLength="194.69" waitingTime="2.00" waitingCount="1" stopTime="0.00" timeLoss="26.90" rerouteNo="0" devices="tripinfo_27 emissions_27" vType="vehicle1" speedFactor="0.98" vaporized="">
        <emissions CO_abs="3595.685419" CO2_abs="110844.764679" HC_abs="18.910454" PMx_abs="1.950811" NOx_abs="45.923714" fuel_abs="47.648985" electricity_abs="0"/>
    </tripinfo>
    <tripinfo id="31" depart="47.00" departLane="n1o_0" departPos="5.10" departSpeed="0.00" departDelay="16.00" arrival="86.00" arrivalLane="n3i_0" arrivalPos="92.80" arrivalSpeed="11.75" duration="39.00" routeLength="194.90" waitingTime="0.00" waitingCount="0" stopTime="0.00" timeLoss="22.35" rerouteNo="0" devices="tripinfo_31 emissions_31" vType="vehicle1" speedFactor="0.87" vaporized="">
        <emissions CO_abs="3273.401242" CO2_abs="104740.920026" HC_abs="17.307283" PMx_abs="1.842440" NOx_abs="43.358165" fuel_abs="45.025015" electricity_abs="0"/>
    </tripinfo>
    <tripinfo id="32" depart="53.00" departLane="n1o_0" departPos="5.10" departSpeed="0.00" departDelay="21.00" arrival="88.00" arrivalLane="n3i_0" arrivalPos="92.80" arrivalSpeed="12.56" duration="35.00" routeLength="194.90" waitingTime="0.00" waitingCount="0" stopTime="0.00" timeLoss="19.53" rerouteNo="0" devices="tripinfo_32 emissions_32" vType="vehicle1" speedFactor="0.92" vaporized="">
        <emissions CO_abs="2818.738645" CO2_abs="98598.102466" HC_abs="15.096714" PMx_abs="1.693517" NOx_abs="40.521533" fuel_abs="42.384241" electricity_abs="0"/>
    </tripinfo>
    <tripinfo id="35" depart="58.00" departLane="n1o_0" departPos="5.10" departSpeed="0.00" departDelay="23.00" arrival="90.00" arrivalLane="n2i_0" arrivalPos="92.80" arrivalSpeed="12.49" duration="32.00" routeLength="194.69" waitingTime="0.00" waitingCount="0" stopTime="0.00" timeLoss="16.11" rerouteNo="0" devices="tripinfo_35 emissions_35" vType="vehicle1" speedFactor="0.93" vaporized="">
        <emissions CO_abs="2360.562117" CO2_abs="88639.120478" HC_abs="12.776829" PMx_abs="1.466579" NOx_abs="36.045667" fuel_abs="38.103125" electricity_abs="0"/>
    </tripinfo>
    <tripinfo id="5" depart="5.00" departLane="n3o_0" departPos="5.10" departSpeed="0.00" departDelay="0.00" arrival="97.00" arrivalLane="n4i_0" arrivalPos="92.80" arrivalSpeed="11.14" duration="92.00" routeLength="194.69" waitingTime="50.00" waitingCount="2" stopTime="0.00" timeLoss="77.35" rerouteNo="0" devices="tripinfo_5 emissions_5" vType="vehicle1" speedFactor="1.03" vaporized="">
        <emissions CO_abs="10186.876372" CO2_abs="217605.465177" HC_abs="51.430674" PMx_abs="4.623348" NOx_abs="94.898768" fuel_abs="93.543851" electricity_abs="0"/>
    </tripinfo>
    <tripinfo id="4" depart="12.00" departLane="n2o_0" departPos="5.10" departSpeed="0.00" departDelay="8.00" arrival="107.00" arrivalLane="n1i_0" arrivalPos="92.80" arrivalSpeed="11.02" duration="95.00" routeLength="189.53" waitingTime="59.00" waitingCount="1" stopTime="0.00" timeLoss="81.43" rerouteNo="0" devices="tripinfo_4 emissions_4" vType="vehicle1" speedFactor="1.08" vaporized="">
        <emissions CO_abs="12768.816798" CO2_abs="256671.238327" HC_abs="64.109073" PMx_abs="5.642537" NOx_abs="112.997940" fuel_abs="110.337748" electricity_abs="0"/>
    </tripinfo>
    <tripinfo id="12" depart="18.00" departLane="n2o_0" departPos="5.10" departSpeed="0.00" departDelay="6.00" arrival="110.00" arrivalLane="n3i_0" arrivalPos="92.80" arrivalSpeed="11.28" duration="92.00" routeLength="194.69" waitingTime="54.00" waitingCount="1" stopTime="0.00" timeLoss="74.43" rerouteNo="0" devices="tripinfo_12 emissions_12" vType="vehicle1" speedFactor="0.86" vaporized="">
        <emissions CO_abs="11364.842864" CO2_abs="236305.513952" HC_abs="57.235936" PMx_abs="5.101433" NOx_abs="103.473792" fuel_abs="101.582741" electricity_abs="0"/>
    </tripinfo>
    <tripinfo id="22" depart="23.00" departLane="n2o_0" departPos="5.10" departSpeed="0.00" departDelay="1.00" arrival="112.00" arrivalLane="n4i_0" arrivalPos="92.80" arrivalSpeed="12.36" duration="89.00" routeLength="194.90" waitingTime="52.00" waitingCount="1" stopTime="0.00" timeLoss="73.17" rerouteNo="0" devices="tripinfo_22 emissions_22" vType="vehicle1" speedFactor="0.94" vaporized="">
        <emissions CO_abs="11025.825546" CO2_abs="232259.559883" HC_abs="55.599146" PMx_abs="4.992748" NOx_abs="101.527507" fuel_abs="99.843384" electricity_abs="0"/>
    </tripinfo>
    <tripinfo id="24" depart="28.00" departLane="n2o_0" departPos="5.10" departSpeed="0.00" departDelay="4.00" arrival="113.00" arrivalLane="n1i_0" arrivalPos="92.80" arrivalSpeed="12.57" duration="85.00" routeLength="189.53" waitingTime="49.00" waitingCount="1" stopTime="0.00" timeLoss="71.95" rerouteNo="0" devices="tripinfo_24 emissions_24" vType="vehicle1" speedFactor="1.16" vaporized="">
        <emissions CO_abs="10667.552169" CO2_abs="225311.732571" HC_abs="53.809857" PMx_abs="4.855444" NOx_abs="98.552225" fuel_abs="96.856621" electricity_abs="0"/>
    </tripinfo>
    <tripinfo id="43" depart="43.00" departLane="n2o_0" departPos="5.10" departSpeed="0.00" departDelay="0.00" arrival="115.00" arrivalLane="n1i_0" arrivalPos="92.80" arrivalSpeed="12.38" duration="72.00" routeLength="189.53" waitingTime="36.00" waitingCount="1" stopTime="0.00" timeLoss="57.19" rerouteNo="0" devices="tripinfo_43 emissions_43" vType="vehicle1" speedFactor="0.97" vaporized="">
        <emissions CO_abs="8429.211417" CO2_abs="188999.021731" HC_abs="42.759401" PMx_abs="3.923292" NOx_abs="81.798390" fuel_abs="81.246350" electricity_abs="0"/>
    </tripinfo>
    <tripinfo id="25" depart="25.00" departLane="n4o_0" departPos="5.10" departSpeed="0.00" departDelay="0.00" arrival="123.00" arrivalLane="n1i_0" arrivalPos="92.80" arrivalSpeed="10.99" duration="98.00" routeLength="194.69" waitingTime="56.00" waitingCount="2" stopTime="0.00" timeLoss="83.51" rerouteNo="0" devices="tripinfo_25 emissions_25" vType="vehicle1" speedFactor="1.02" vaporized="">
        <emissions CO_abs="11601.561703" CO2_abs="240783.659945" HC_abs="58.421662" PMx_abs="5.224528" NOx_abs="105.644026" fuel_abs="103.507775" electricity_abs="0"/>
    </tripinfo>
    <tripinfo id="26" depart="30.00" departLane="n4o_0" departPos="5.10" departSpeed="0.00" departDelay="4.00" arrival="127.00" arrivalLane="n2i_0" arrivalPos="92.80" arrivalSpeed="11.27" duration="97.00" routeLength="194.90" waitingTime="56.00" waitingCount="2" stopTime="0.00" timeLoss="82.43" rerouteNo="0" devices="tripinfo_26 emissions_26" vType="vehicle1" speedFactor="1.01" vaporized="">
        <emissions CO_abs="11641.211030" CO2_abs="241066.271279" HC_abs="58.603317" PMx_abs="5.205951" NOx_abs="105.601049" fuel_abs="103.629325" electricity_abs="0"/>
    </tripinfo>
    <tripinfo id="29" depart="35.00" departLane="n4o_0" departPos="5.10" departSpeed="0.00" departDelay="6.00" arrival="128.00" arrivalLane="n1i_0" arrivalPos="92.80" arrivalSpeed="11.17" duration="93.00" routeLength="194.69" waitingTime="52.00" waitingCount="2" stopTime="0.00" timeLoss="74.57" rerouteNo="0" devices="tripinfo_29 emissions_29" vType="vehicle1" speedFactor="0.83" vaporized="">
        <emissions CO_abs="10784.941264" CO2_abs="226625.678565" HC_abs="54.363646" PMx_abs="4.840788" NOx_abs="98.934907" fuel_abs="97.421562" electricity_abs="0"/>
    </tripinfo>
    <tripinfo id="34" depart="40.00" departLane="n4o_0" departPos="5.10" departSpeed="0.00" departDelay="6.00" arrival="130.00" arrivalLane="n1i_0" arrivalPos="92.80" arrivalSpeed="11.89" duration="90.00" routeLength="194.69" waitingTime="47.00" waitingCount="2" stopTime="0.00" timeLoss="76.46" rerouteNo="0" devices="tripinfo_34 emissions_34" vType="vehicle1" speedFactor="1.13" vaporized="">
        <emissions CO_abs="10202.440584" CO2_abs="217888.051735" HC_abs="51.510471" PMx_abs="4.636510" NOx_abs="94.997753" fuel_abs="93.665327" electricity_abs="0"/>
    </tripinfo>
    <tripinfo id="8" depart="10.00" departLane="n3o_0" departPos="5.10" departSpeed="0.00" departDelay="2.00" arrival="157.00" arrivalLane="n2i_0" arrivalPos="92.80" arrivalSpeed="11.20" duration="147.00" routeLength="189.53" waitingTime="104.00" waitingCount="2" stopTime="0.00" timeLoss="130.53" rerouteNo="0" devices="tripinfo_8 emissions_8" vType="vehicle1" speedFactor="0.89" vaporized="">
        <emissions CO_abs="19725.141134" CO2_abs="368933.199924" HC_abs="98.414905" PMx_abs="8.425673" NOx_abs="164.335081" fuel_abs="158.597589" electricity_abs="0"/>
    </tripinfo>
    <tripinfo id="37" depart="63.00" departLane="n1o_0" departPos="5.10" departSpeed="0.00" departDelay="26.00" arrival="157.00" arrivalLane="n3i_0" arrivalPos="92.80" arrivalSpeed="11.08" duration="94.00" routeLength="194.90" waitingTime="58.00" waitingCount="1" stopTime="0.00" timeLoss="81.82" rerouteNo="0" devices="tripinfo_37 emissions_37" vType="vehicle1" speedFactor="1.15" vaporized="">
        <emissions CO_abs="11755.784765" CO2_abs="236590.127152" HC_abs="59.026721" PMx_abs="5.187994" NOx_abs="104.114761" fuel_abs="101.705291" electricity_abs="0"/>
    </tripinfo>
    <tripinfo id="15" depart="15.00" departLane="n3o_0" departPos="5.10" departSpeed="0.00" departDelay="0.00" arrival="160.00" arrivalLane="n1i_0" arrivalPos="92.80" arrivalSpeed="12.12" duration="145.00" routeLength="194.90" waitingTime="100.00" waitingCount="2" stopTime="0.00" timeLoss="130.71" rerouteNo="0" devices="tripinfo_15 emissions_15" vType="vehicle1" speedFactor="1.03" vaporized="">
        <emissions CO_abs="18954.944208" CO2_abs="357937.038013" HC_abs="94.654018" PMx_abs="8.156414" NOx_abs="159.296958" fuel_abs="153.870415" electricity_abs="0"/>
    </tripinfo>
    <tripinfo id="39" depart="68.00" departLane="n1o_0" departPos="5.10" departSpeed="0.00" departDelay="29.00" arrival="160.00" arrivalLane="n3i_0" arrivalPos="92.80" arrivalSpeed="11.97" duration="92.00" routeLength="194.90" waitingTime="55.00" waitingCount="1" stopTime="0.00" timeLoss="79.57" rerouteNo="0" devices="tripinfo_39 emissions_39" vType="vehicle1" speedFactor="1.17" vaporized="">
        <emissions CO_abs="11492.057421" CO2_abs="240383.070329" HC_abs="57.911669" PMx_abs="5.186089" NOx_abs="105.215104" fuel_abs="103.335545" electricity_abs="0"/>
    </tripinfo>
    <tripinfo id="17" depart="20.00" departLane="n3o_0" departPos="5.10" departSpeed="0.00" departDelay="3.00" arrival="161.00" arrivalLane="n1i_0" arrivalPos="92.80" arrivalSpeed="11.81" duration="141.00" routeLength="194.90" waitingTime="97.00" waitingCount="2" stopTime="0.00" timeLoss="128.49" rerouteNo="0" devices="tripinfo_17 emissions_17" vType="vehicle1" speedFactor="1.12" vaporized="">
        <emissions CO_abs="18190.167980" CO2_abs="342857.829363" HC_abs="90.817655" PMx_abs="7.805440" NOx_abs="152.541216" fuel_abs="147.388186" electricity_abs="0"/>
    </tripinfo>
    <tripinfo id="42" depart="73.00" departLane="n1o_0" departPos="5.10" departSpeed="0.00" departDelay="31.00" arrival="162.00" arrivalLane="n3i_0" arrivalPos="92.80" arrivalSpeed="12.42" duration="89.00" routeLength="194.90" waitingTime="51.00" waitingCount="1" stopTime="0.00" timeLoss="74.43" rerouteNo="0" devices="tripinfo_42 emissions_42" vType="vehicle1" speedFactor="1.02" vaporized="">
        <emissions CO_abs="11011.452243" CO2_abs="232785.772680" HC_abs="55.546418" PMx_abs="4.999505" NOx_abs="101.716376" fuel_abs="100.069566" electricity_abs="0"/>
    </tripinfo>
    <tripinfo id="21" depart="26.00" departLane="n3o_0" departPos="5.10" departSpeed="0.00" departDelay="5.00" arrival="163.00" arrivalLane="n2i_0" arrivalPos="92.80" arrivalSpeed="12.06" duration="137.00" routeLength="189.53" waitingTime="92.00" waitingCount="2" stopTime="0.00" timeLoss="120.88" rerouteNo="0" devices="tripinfo_21 emissions_21" vType="vehicle1" speedFactor="0.88" vaporized="">
        <emissions CO_abs="17640.351688" CO2_abs="333740.142831" HC_abs="88.104479" PMx_abs="7.602529" NOx_abs="148.518907" fuel_abs="143.468599" electricity_abs="0"/>
    </tripinfo>
    <tripinfo id="28" depart="31.00" departLane="n3o_0" departPos="5.10" departSpeed="0.00" departDelay="3.00" arrival="167.00" arrivalLane="n2i_0" arrivalPos="92.80" arrivalSpeed="11.78" duration="136.00" routeLength="189.53" waitingTime="90.00" waitingCount="2" stopTime="0.00" timeLoss="119.50" rerouteNo="0" devices="tripinfo_28 emissions_28" vType="vehicle1" speedFactor="0.89" vaporized="">
        <emissions CO_abs="17675.589486" CO2_abs="333956.741853" HC_abs="88.264206" PMx_abs="7.581109" NOx_abs="148.442672" fuel_abs="143.561772" electricity_abs="0"/>
    </tripinfo>
    <tripinfo id="33" depart="37.00" departLane="n3o_0" departPos="5.10" departSpeed="0.00" departDelay="4.00" arrival="170.00" arrivalLane="n2i_0" arrivalPos="92.80" arrivalSpeed="11.56" duration="133.00" routeLength="189.53" waitingTime="89.00" waitingCount="2" stopTime="0.00" timeLoss="117.56" rerouteNo="0" devices="tripinfo_33 emissions_33" vType="vehicle1" speedFactor="0.95" vaporized="">
        <emissions CO_abs="16827.401361" CO2_abs="319183.923057" HC_abs="84.052114" PMx_abs="7.209350" NOx_abs="141.693148" fuel_abs="137.211206" electricity_abs="0"/>
    </tripinfo>
    <tripinfo id="36" depart="42.00" departLane="n3o_0" departPos="5.10" departSpeed="0.00" departDelay="6.00" arrival="172.00" arrivalLane="n2i_0" arrivalPos="92.80" arrivalSpeed="11.86" duration="130.00" routeLength="189.53" waitingTime="85.00" waitingCount="2" stopTime="0.00" timeLoss="117.37" rerouteNo="0" devices="tripinfo_36 emissions_36" vType="vehicle1" speedFactor="1.18" vaporized="">
        <emissions CO_abs="16435.644131" CO2_abs="312796.342667" HC_abs="82.116707" PMx_abs="7.037936" NOx_abs="138.637542" fuel_abs="134.465303" electricity_abs="0"/>
    </tripinfo>
    <tripinfo id="38" depart="47.00" departLane="n3o_0" departPos="5.10" departSpeed="0.00" departDelay="9.00" arrival="175.00" arrivalLane="n1i_0" arrivalPos="92.80" arrivalSpeed="12.23" duration="128.00" routeLength="194.90" waitingTime="82.00" waitingCount="2" stopTime="0.00" timeLoss="113.88" rerouteNo="0" devices="tripinfo_38 emissions_38" vType="vehicle1" speedFactor="1.01" vaporized="">
        <emissions CO_abs="16201.450647" CO2_abs="311202.120534" HC_abs="81.018145" PMx_abs="7.006902" NOx_abs="138.002499" fuel_abs="133.779837" electricity_abs="0"/>
    </tripinfo>
    <tripinfo id="45" depart="52.00" departLane="n3o_0" departPos="5.10" departSpeed="0.00" departDelay="7.00" arrival="177.00" arrivalLane="n1i_0" arrivalPos="92.80" arrivalSpeed="12.08" duration="125.00" routeLength="194.90" waitingTime="81.00" waitingCount="1" stopTime="0.00" timeLoss="112.01" rerouteNo="0" devices="tripinfo_45 emissions_45" vType="vehicle1" speedFactor="1.10" vaporized="">
        <emissions CO_abs="15562.251894" CO2_abs="297470.743203" HC_abs="77.784339" PMx_abs="6.686800" NOx_abs="131.784534" fuel_abs="127.877068" electricity_abs="0"/>
    </tripinfo>
    <tripinfo id="44" depart="78.00" departLane="n1o_0" departPos="5.10" departSpeed="0.00" departDelay="34.00" arrival="186.00" arrivalLane="n2i_0" arrivalPos="92.80" arrivalSpeed="11.10" duration="108.00" routeLength="194.69" waitingTime="62.00" waitingCount="2" stopTime="0.00" timeLoss="95.14" rerouteNo="0" devices="tripinfo_44 emissions_44" vType="vehicle1" speedFactor="1.18" vaporized="">
        <emissions CO_abs="12602.964318" CO2_abs="256099.256292" HC_abs="63.331838" PMx_abs="5.575111" NOx_abs="112.547345" fuel_abs="110.091815" electricity_abs="0"/>
    </tripinfo>
    <tripinfo id="46" depart="57.00" departLane="n3o_0" departPos="5.10" departSpeed="0.00" departDelay="11.00" arrival="186.00" arrivalLane="n4i_0" arrivalPos="92.80" arrivalSpeed="12.00" duration="129.00" routeLength="194.69" waitingTime="80.00" waitingCount="1" stopTime="0.00" timeLoss="111.95" rerouteNo="0" devices="tripinfo_46 emissions_46" vType="vehicle1" speedFactor="0.90" vaporized="">
        <emissions CO_abs="15811.698267" CO2_abs="303676.177992" HC_abs="79.069131" PMx_abs="6.846043" NOx_abs="134.764781" fuel_abs="130.544562" electricity_abs="0"/>
    </tripinfo>
    <tripinfo id="40" depart="45.00" departLane="n4o_0" departPos="5.10" departSpeed="0.00" departDelay="5.00" arrival="198.00" arrivalLane="n1i_0" arrivalPos="92.80" arrivalSpeed="11.37" duration="153.00" routeLength="194.69" waitingTime="103.00" waitingCount="3" stopTime="0.00" timeLoss="137.66" rerouteNo="0" devices="tripinfo_40 emissions_40" vType="vehicle1" speedFactor="0.99" vaporized="">
        <emissions CO_abs="19895.033414" CO2_abs="373916.726079" HC_abs="99.298771" PMx_abs="8.500643" NOx_abs="166.391207" fuel_abs="160.739882" electricity_abs="0"/>
    </tripinfo>
    <tripinfo id="48" depart="83.00" departLane="n1o_0" departPos="5.10" departSpeed="0.00" departDelay="35.00" arrival="248.00" arrivalLane="n4i_0" arrivalPos="92.80" arrivalSpeed="11.65" duration="165.00" routeLength="189.53" waitingTime="118.00" waitingCount="2" stopTime="0.00" timeLoss="150.37" rerouteNo="0" devices="tripinfo_48 emissions_48" vType="vehicle1" speedFactor="1.03" vaporized="">
        <emissions CO_abs="22417.472890" CO2_abs="412073.932753" HC_abs="111.688874" PMx_abs="9.519110" NOx_abs="184.240692" fuel_abs="177.143161" electricity_abs="0"/>
    </tripinfo>
</tripinfos>
